MODEL 1
REMARK VINA RESULT:    -7.074      0.000      0.000
REMARK INTER + INTRA:         -12.190
REMARK INTER:                 -11.210
REMARK INTRA:                  -0.980
REMARK UNBOUND:                -0.980
REMARK  Name = /tmp/tmp1l_wnu0w/5V90_candidate_0033.pdb
REMARK  10 active torsions:
REMARK  status: ('A' for Active; 'I' for Inactive)
REMARK    1  A    between atoms: O1_2  and  C2_3
REMARK    2  A    between atoms: C2_3  and  C3_4
REMARK    3  A    between atoms: C3_4  and  O2_5
REMARK    4  A    between atoms: O2_5  and  C4_6
REMARK    5  A    between atoms: C5_7  and  O3_25
REMARK    6  A    between atoms: N3_16  and  C12_17
REMARK    7  A    between atoms: C16_21  and  C18_23
REMARK    8  A    between atoms: O3_25  and  C20_26
REMARK    9  A    between atoms: C20_26  and  C21_27
REMARK   10  A    between atoms: C21_27  and  O4_28
REMARK                            x       y       z     vdW  Elec       q    Type
REMARK                         _______ _______ _______ _____ _____    ______ ____
ROOT
ATOM      1  C4  UNL     1     -21.163  12.124 -18.578  0.00  0.00    +0.173 A 
ATOM      2  C5  UNL     1     -22.388  11.458 -18.565  0.00  0.00    +0.174 A 
ATOM      3  C6  UNL     1     -23.550  12.173 -18.263  0.00  0.00    +0.059 A 
ATOM      4  C7  UNL     1     -23.538  13.528 -17.960  0.00  0.00    +0.089 A 
ATOM      5  C8  UNL     1     -22.309  14.190 -17.961  0.00  0.00    +0.054 A 
ATOM      6  C9  UNL     1     -21.134  13.483 -18.273  0.00  0.00    +0.044 A 
ATOM      7  C10 UNL     1     -22.334  15.552 -17.640  0.00  0.00    +0.155 A 
ATOM      8  N1  UNL     1     -23.489  16.185 -17.353  0.00  0.00    -0.207 NA
ATOM      9  C11 UNL     1     -24.607  15.456 -17.395  0.00  0.00    +0.200 A 
ATOM     10  N2  UNL     1     -24.684  14.151 -17.688  0.00  0.00    -0.224 NA
ATOM     11  N3  UNL     1     -21.095  16.251 -17.651  0.00  0.00    -0.194 NA
ENDROOT
BRANCH  11  12
ATOM     12  C12 UNL     1     -20.838  17.582 -17.260  0.00  0.00    +0.073 A 
ATOM     13  C13 UNL     1     -21.059  18.067 -15.970  0.00  0.00    +0.017 A 
ATOM     14  C14 UNL     1     -20.768  19.390 -15.637  0.00  0.00    +0.002 A 
ATOM     15  C15 UNL     1     -20.256  20.251 -16.603  0.00  0.00    +0.008 A 
ATOM     16  C16 UNL     1     -20.028  19.784 -17.895  0.00  0.00    +0.044 A 
ATOM     17  C17 UNL     1     -20.310  18.456 -18.215  0.00  0.00    +0.025 A 
BRANCH  16  18
ATOM     18  C18 UNL     1     -19.493  20.658 -18.887  0.00  0.00    -0.051 C 
ATOM     19  C19 UNL     1     -19.044  21.392 -19.723  0.00  0.00    -0.009 C 
ENDBRANCH  16  18
ENDBRANCH  11  12
BRANCH   1  20
ATOM     20  O2  UNL     1     -20.037  11.405 -18.883  0.00  0.00    -0.470 OA
BRANCH  20  21
ATOM     21  C3  UNL     1     -19.028  11.559 -17.887  0.00  0.00    +0.237 C 
BRANCH  21  22
ATOM     22  C2  UNL     1     -19.269  10.534 -16.801  0.00  0.00    +0.189 C 
BRANCH  22  24
ATOM     23  C1  UNL     1     -18.327   8.900 -15.526  0.00  0.00    +0.174 C 
ATOM     24  O1  UNL     1     -18.027   9.963 -16.417  0.00  0.00    -0.347 OA
ENDBRANCH  22  24
ENDBRANCH  21  22
ENDBRANCH  20  21
ENDBRANCH   1  20
BRANCH   2  25
ATOM     25  O3  UNL     1     -22.389  10.118 -18.854  0.00  0.00    -0.470 OA
BRANCH  25  26
ATOM     26  C20 UNL     1     -23.706   9.576 -18.819  0.00  0.00    +0.237 C 
BRANCH  26  27
ATOM     27  C21 UNL     1     -23.973   8.873 -20.129  0.00  0.00    +0.189 C 
BRANCH  27  28
ATOM     28  O4  UNL     1     -23.862   9.816 -21.186  0.00  0.00    -0.347 OA
ATOM     29  C22 UNL     1     -25.095  10.517 -21.247  0.00  0.00    +0.174 C 
ENDBRANCH  27  28
ENDBRANCH  26  27
ENDBRANCH  25  26
ENDBRANCH   2  25
TORSDOF 10
ENDMDL
