MODEL 1
REMARK VINA RESULT:    -7.796      0.000      0.000
REMARK INTER + INTRA:         -12.985
REMARK INTER:                 -11.898
REMARK INTRA:                  -1.087
REMARK UNBOUND:                -1.087
REMARK  Name = /tmp/tmpq2z9bi6a/5V90_candidate_0017.pdb
REMARK  9 active torsions:
REMARK  status: ('A' for Active; 'I' for Inactive)
REMARK    1  A    between atoms: C3_3  and  C15_20
REMARK    2  A    between atoms: C6_6  and  C7_7
REMARK    3  A    between atoms: C7_7  and  C8_8
REMARK    4  A    between atoms: C8_8  and  C9_9
REMARK    5  A    between atoms: N5_22  and  C16_23
REMARK    6  A    between atoms: C16_23  and  C17_24
REMARK    7  A    between atoms: C16_23  and  C20_29
REMARK    8  A    between atoms: C17_24  and  C18_25
REMARK    9  A    between atoms: C18_25  and  C19_26
REMARK                            x       y       z     vdW  Elec       q    Type
REMARK                         _______ _______ _______ _____ _____    ______ ____
ROOT
ATOM      1  C1  UNL     1       1.367  18.290 -22.079  0.00  0.00    -0.004 A 
ATOM      2  C2  UNL     1       1.033  19.508 -21.494  0.00  0.00    +0.004 A 
ATOM      3  C3  UNL     1      -0.104  20.193 -21.918  0.00  0.00    +0.055 A 
ATOM      4  C4  UNL     1      -0.903  19.667 -22.935  0.00  0.00    +0.004 A 
ATOM      5  C5  UNL     1      -0.567  18.449 -23.519  0.00  0.00    -0.004 A 
ATOM      6  C6  UNL     1       0.561  17.753 -23.083  0.00  0.00    -0.022 A 
ENDROOT
BRANCH   3   7
ATOM      7  C15 UNL     1      -0.441  21.476 -21.270  0.00  0.00    +0.265 C 
ATOM      8  O2  UNL     1      -1.151  22.305 -21.828  0.00  0.00    -0.268 OA
ATOM      9  N5  UNL     1       0.088  21.653 -20.010  0.00  0.00    -0.192 NA
BRANCH   9  10
ATOM     10  C16 UNL     1      -0.117  22.863 -19.246  0.00  0.00    +0.199 C 
BRANCH  10  11
ATOM     11  C20 UNL     1       1.107  23.739 -19.053  0.00  0.00    +0.384 C 
ATOM     12  O5  UNL     1       1.248  24.833 -19.591  0.00  0.00    -0.244 OA
ATOM     13  O6  UNL     1       2.052  23.175 -18.266  0.00  0.00    -0.244 OA
ENDBRANCH  10  11
BRANCH  10  14
ATOM     14  C17 UNL     1      -0.814  22.600 -17.925  0.00  0.00    +0.045 C 
BRANCH  14  15
ATOM     15  C18 UNL     1      -1.715  21.388 -18.012  0.00  0.00    +0.116 C 
BRANCH  15  16
ATOM     16  C19 UNL     1      -3.102  21.833 -18.339  0.00  0.00    +0.365 C 
ATOM     17  O3  UNL     1      -3.690  21.553 -19.373  0.00  0.00    -0.246 OA
ATOM     18  O4  UNL     1      -3.615  22.575 -17.332  0.00  0.00    -0.246 OA
ENDBRANCH  15  16
ENDBRANCH  14  15
ENDBRANCH  10  14
ENDBRANCH   9  10
ENDBRANCH   3   7
BRANCH   6  19
ATOM     19  C7  UNL     1       0.908  16.429 -23.678  0.00  0.00    +0.031 C 
BRANCH  19  20
ATOM     20  C8  UNL     1      -0.320  15.552 -23.816  0.00  0.00    +0.033 C 
BRANCH  20  21
ATOM     21  C9  UNL     1      -0.030  14.275 -24.506  0.00  0.00    +0.005 A 
ATOM     22  C10 UNL     1       1.039  13.429 -24.269  0.00  0.00    +0.097 A 
ATOM     23  N1  UNL     1       0.941  12.358 -25.116  0.00  0.00    -0.225 NA
ATOM     24  C11 UNL     1      -0.167  12.497 -25.902  0.00  0.00    +0.170 A 
ATOM     25  C12 UNL     1      -0.784  13.678 -25.551  0.00  0.00    +0.091 A 
ATOM     26  C13 UNL     1      -1.988  14.053 -26.257  0.00  0.00    +0.284 A 
ATOM     27  O1  UNL     1      -2.607  15.089 -26.033  0.00  0.00    -0.265 OA
ATOM     28  N2  UNL     1      -2.352  13.114 -27.211  0.00  0.00    -0.172 NA
ATOM     29  C14 UNL     1      -1.649  11.940 -27.485  0.00  0.00    +0.261 A 
ATOM     30  N3  UNL     1      -0.551  11.606 -26.848  0.00  0.00    -0.192 NA
ATOM     31  N4  UNL     1      -2.187  11.149 -28.478  0.00  0.00    -0.086 NA
ENDBRANCH  20  21
ENDBRANCH  19  20
ENDBRANCH   6  19
TORSDOF 9
ENDMDL
