MODEL 1
REMARK VINA RESULT:    -9.475      0.000      0.000
REMARK INTER + INTRA:         -18.891
REMARK INTER:                 -16.676
REMARK INTRA:                  -2.215
REMARK UNBOUND:                -2.215
REMARK  Name = /tmp/tmpl085fn36/5V90_candidate_0098.pdb
REMARK  13 active torsions:
REMARK  status: ('A' for Active; 'I' for Inactive)
REMARK    1  A    between atoms: C2_2  and  C3_3
REMARK    2  A    between atoms: C2_2  and  O7_83
REMARK    3  A    between atoms: C4_4  and  C15_18
REMARK    4  A    between atoms: C6_6  and  N2_9
REMARK    5  A    between atoms: N3_12  and  C12_15
REMARK    6  A    between atoms: C26_34  and  N8_54
REMARK    7  A    between atoms: N7_46  and  C36_47
REMARK    8  A    between atoms: C36_47  and  C37_48
REMARK    9  A    between atoms: C40_55  and  C41_57
REMARK   10  A    between atoms: C41_57  and  C42_58
REMARK   11  A    between atoms: C41_57  and  N9_63
REMARK   12  A    between atoms: C54_72  and  C55_74
REMARK   13  A    between atoms: C56_75  and  C58_78
REMARK                            x       y       z     vdW  Elec       q    Type
REMARK                         _______ _______ _______ _____ _____    ______ ____
ROOT
ATOM      1  C15 UNL     1       7.894   5.386 -21.448  0.00  0.00    +0.057 A 
ATOM      2  C16 UNL     1       8.480   6.128 -22.468  0.00  0.00    -0.005 A 
ATOM      3  C17 UNL     1       9.369   5.622 -23.542  0.00  0.00    +0.031 C 
ATOM      4  C18 UNL     1       8.768   5.248 -24.881  0.00  0.00    +0.045 C 
ATOM      5  C19 UNL     1       8.049   6.405 -25.549  0.00  0.00    +0.209 C 
ATOM      6  O1  UNL     1       6.688   6.513 -25.149  0.00  0.00    -0.448 OA
ATOM      7  C20 UNL     1       6.148   7.694 -25.562  0.00  0.00    +0.335 C 
ATOM      8  O2  UNL     1       6.738   8.548 -26.212  0.00  0.00    -0.248 OA
ATOM      9  C21 UNL     1       4.708   7.766 -25.120  0.00  0.00    +0.192 C 
ATOM     10  C22 UNL     1       3.748   7.851 -26.284  0.00  0.00    +0.033 C 
ATOM     11  C23 UNL     1       3.498   9.260 -26.777  0.00  0.00    +0.025 C 
ATOM     12  C24 UNL     1       4.238  10.317 -25.985  0.00  0.00    +0.113 C 
ATOM     13  N4  UNL     1       4.193  10.055 -24.561  0.00  0.00    -0.205 N 
ATOM     14  N5  UNL     1       4.513   8.771 -24.085  0.00  0.00    -0.118 NA
ATOM     15  C25 UNL     1       4.138  11.090 -23.632  0.00  0.00    +0.260 C 
ATOM     16  O3  UNL     1       4.175  10.934 -22.411  0.00  0.00    -0.272 OA
ATOM     17  C26 UNL     1       3.979  12.483 -24.249  0.00  0.00    +0.175 C 
ATOM     18  C27 UNL     1       5.055  13.406 -23.697  0.00  0.00    +0.062 C 
ATOM     19  C28 UNL     1       6.476  12.989 -24.027  0.00  0.00    +0.137 C 
ATOM     20  C29 UNL     1       6.964  12.044 -22.927  0.00  0.00    +0.121 C 
ATOM     21  N6  UNL     1       8.022  11.106 -23.299  0.00  0.00    -0.303 N 
ATOM     22  C30 UNL     1       8.123  10.767 -24.719  0.00  0.00    +0.123 C 
ATOM     23  C31 UNL     1       7.824  11.967 -25.602  0.00  0.00    +0.163 C 
ATOM     24  O4  UNL     1       6.501  12.437 -25.342  0.00  0.00    -0.353 OA
ATOM     25  C32 UNL     1       7.888   9.919 -22.521  0.00  0.00    +0.048 A 
ATOM     26  C33 UNL     1       8.404   8.690 -22.962  0.00  0.00    +0.016 A 
ATOM     27  C34 UNL     1       8.143   7.499 -22.256  0.00  0.00    +0.014 A 
ATOM     28  C35 UNL     1       7.419   7.570 -21.070  0.00  0.00    +0.060 A 
ATOM     29  N7  UNL     1       7.272   6.287 -20.606  0.00  0.00    -0.320 N 
ATOM     30  C38 UNL     1       6.990   8.787 -20.530  0.00  0.00    +0.018 A 
ATOM     31  C39 UNL     1       7.243   9.938 -21.278  0.00  0.00    +0.016 A 
ATOM     32  C61 UNL     1       7.898   4.017 -24.764  0.00  0.00    +0.004 C 
ATOM     33  C62 UNL     1       9.936   4.886 -25.779  0.00  0.00    +0.004 C 
ENDROOT
BRANCH   1  35
ATOM     34  C3  UNL     1       9.108   3.311 -20.656  0.00  0.00    +0.087 A 
ATOM     35  C4  UNL     1       7.979   3.948 -21.181  0.00  0.00    +0.033 A 
ATOM     36  C5  UNL     1       6.864   3.156 -21.465  0.00  0.00    +0.019 A 
ATOM     37  C6  UNL     1       6.845   1.783 -21.230  0.00  0.00    +0.067 A 
ATOM     38  C7  UNL     1       8.038   1.260 -20.738  0.00  0.00    +0.113 A 
ATOM     39  N1  UNL     1       9.151   1.968 -20.446  0.00  0.00    -0.244 NA
BRANCH  37  40
ATOM     40  N2  UNL     1       5.738   0.993 -21.547  0.00  0.00    -0.303 N 
ATOM     41  C8  UNL     1       5.605  -0.231 -20.756  0.00  0.00    +0.108 C 
ATOM     42  C9  UNL     1       5.960  -1.470 -21.582  0.00  0.00    +0.094 C 
ATOM     43  N3  UNL     1       5.230  -1.641 -22.843  0.00  0.00    -0.271 NA
ATOM     44  C10 UNL     1       4.634  -0.376 -23.280  0.00  0.00    +0.094 C 
ATOM     45  C11 UNL     1       5.495   0.850 -22.983  0.00  0.00    +0.108 C 
BRANCH  43  46
ATOM     46  C12 UNL     1       4.175  -2.633 -22.671  0.00  0.00    +0.058 C 
ATOM     47  C13 UNL     1       3.218  -2.923 -23.789  0.00  0.00    +0.017 C 
ATOM     48  C14 UNL     1       4.239  -3.948 -23.393  0.00  0.00    +0.017 C 
ENDBRANCH  43  46
ENDBRANCH  37  40
BRANCH  34  50
ATOM     49  C1  UNL     1      11.481   3.833 -21.242  0.00  0.00    +0.039 C 
ATOM     50  C2  UNL     1      10.336   4.103 -20.287  0.00  0.00    +0.155 C 
BRANCH  50  51
ATOM     51  O7  UNL     1      10.759   3.836 -18.957  0.00  0.00    -0.348 OA
ATOM     52  C63 UNL     1      11.798   4.758 -18.656  0.00  0.00    +0.175 C 
ENDBRANCH  50  51
ENDBRANCH  34  50
ENDBRANCH   1  35
BRANCH  17  53
ATOM     53  N8  UNL     1       2.689  12.964 -23.803  0.00  0.00    -0.197 NA
ATOM     54  C40 UNL     1       2.066  13.986 -24.490  0.00  0.00    +0.256 C 
ATOM     55  O5  UNL     1       2.594  14.627 -25.396  0.00  0.00    -0.272 OA
BRANCH  54  56
ATOM     56  C41 UNL     1       0.620  14.153 -24.030  0.00  0.00    +0.136 C 
BRANCH  56  57
ATOM     57  N9  UNL     1       0.392  15.546 -23.610  0.00  0.00    -0.266 NA
ATOM     58  C47 UNL     1      -0.322  16.267 -24.657  0.00  0.00    +0.073 C 
ATOM     59  C48 UNL     1       0.185  17.695 -24.612  0.00  0.00    +0.020 C 
ATOM     60  C49 UNL     1       1.346  17.688 -23.646  0.00  0.00    +0.036 C 
ATOM     61  C50 UNL     1       1.666  16.235 -23.415  0.00  0.00    +0.074 C 
ATOM     62  C51 UNL     1       2.546  18.435 -24.199  0.00  0.00    +0.025 C 
ATOM     63  C52 UNL     1       2.432  19.841 -23.638  0.00  0.00    +0.094 C 
ATOM     64  N10 UNL     1       1.566  19.713 -22.493  0.00  0.00    -0.278 N 
ATOM     65  C53 UNL     1       0.985  18.395 -22.355  0.00  0.00    +0.095 C 
ATOM     66  C54 UNL     1       1.317  20.779 -21.664  0.00  0.00    +0.241 C 
ATOM     67  O6  UNL     1       1.833  21.882 -21.817  0.00  0.00    -0.273 OA
BRANCH  66  68
ATOM     68  C55 UNL     1       0.381  20.516 -20.540  0.00  0.00    +0.150 C 
ATOM     69  C56 UNL     1      -0.361  21.601 -19.829  0.00  0.00    +0.081 C 
ATOM     70  N11 UNL     1      -1.069  20.719 -20.754  0.00  0.00    -0.264 NA
ATOM     71  C57 UNL     1      -1.370  21.391 -22.008  0.00  0.00    +0.090 C 
BRANCH  69  72
ATOM     72  C58 UNL     1      -0.212  23.079 -20.025  0.00  0.00    +0.016 C 
ATOM     73  C59 UNL     1       0.480  23.995 -19.062  0.00  0.00    +0.001 C 
ATOM     74  C60 UNL     1      -1.002  24.111 -19.275  0.00  0.00    +0.001 C 
ENDBRANCH  69  72
ENDBRANCH  66  68
ENDBRANCH  56  57
BRANCH  56  75
ATOM     75  C42 UNL     1      -0.318  13.603 -25.102  0.00  0.00    +0.024 C 
ATOM     76  C43 UNL     1      -1.620  13.063 -24.546  0.00  0.00    +0.002 C 
ATOM     77  C44 UNL     1      -2.141  12.126 -25.618  0.00  0.00    +0.000 C 
ATOM     78  C45 UNL     1      -0.945  11.746 -26.472  0.00  0.00    +0.000 C 
ATOM     79  C46 UNL     1       0.258  12.403 -25.830  0.00  0.00    +0.002 C 
ENDBRANCH  56  75
ENDBRANCH  54  56
ENDBRANCH  17  53
BRANCH  29  80
ATOM     80  C36 UNL     1       6.676   5.952 -19.327  0.00  0.00    +0.210 C 
BRANCH  80  81
ATOM     81  C37 UNL     1       7.603   6.126 -18.146  0.00  0.00    +0.418 C 
ATOM     82  F1  UNL     1       7.564   5.064 -17.317  0.00  0.00    -0.168 F 
ATOM     83  F2  UNL     1       8.886   6.332 -18.513  0.00  0.00    -0.168 F 
ATOM     84  F3  UNL     1       7.221   7.209 -17.424  0.00  0.00    -0.168 F 
ENDBRANCH  80  81
ENDBRANCH  29  80
TORSDOF 13
ENDMDL
