MODEL 1
REMARK VINA RESULT:    -8.335      0.000      0.000
REMARK INTER + INTRA:         -17.113
REMARK INTER:                 -14.182
REMARK INTRA:                  -2.931
REMARK UNBOUND:                -2.931
REMARK  Name = /tmp/tmp5sw2rsn_/5V90_candidate_0051.pdb
REMARK  12 active torsions:
REMARK  status: ('A' for Active; 'I' for Inactive)
REMARK    1  A    between atoms: C3_3  and  C9_11
REMARK    2  A    between atoms: C10_12  and  C39_52
REMARK    3  A    between atoms: C14_16  and  O1_17
REMARK    4  A    between atoms: O1_17  and  C15_18
REMARK    5  A    between atoms: C15_18  and  C16_19
REMARK    6  A    between atoms: C17_24  and  O3_40
REMARK    7  A    between atoms: C26_36  and  C27_38
REMARK    8  A    between atoms: O3_40  and  C29_41
REMARK    9  A    between atoms: C32_44  and  C35_47
REMARK   10  A    between atoms: C35_47  and  C36_48
REMARK   11  A    between atoms: C36_48  and  C37_49
REMARK   12  A    between atoms: C37_49  and  O4_50
REMARK                            x       y       z     vdW  Elec       q    Type
REMARK                         _______ _______ _______ _____ _____    ______ ____
ROOT
ATOM      1  C9  UNL     1       2.585  18.440 -23.277  0.00  0.00    +0.031 A 
ATOM      2  C10 UNL     1       3.589  17.486 -23.010  0.00  0.00    -0.019 A 
ATOM      3  C11 UNL     1       3.301  16.156 -23.327  0.00  0.00    +0.000 A 
ATOM      4  C12 UNL     1       2.078  15.732 -23.872  0.00  0.00    +0.052 A 
ATOM      5  C13 UNL     1       1.062  16.661 -24.105  0.00  0.00    +0.122 A 
ATOM      6  C14 UNL     1       1.328  18.016 -23.802  0.00  0.00    +0.156 A 
ATOM      7  N3  UNL     1      -0.118  16.259 -24.610  0.00  0.00    -0.191 NA
ATOM      8  C17 UNL     1      -0.291  14.956 -24.860  0.00  0.00    +0.321 A 
ATOM      9  N4  UNL     1       0.619  13.997 -24.671  0.00  0.00    -0.179 NA
ATOM     10  C18 UNL     1       1.812  14.386 -24.189  0.00  0.00    +0.138 A 
ATOM     11  N5  UNL     1       2.817  13.402 -23.993  0.00  0.00    -0.293 N 
ATOM     12  C19 UNL     1       3.850  13.602 -25.006  0.00  0.00    +0.092 C 
ATOM     13  C20 UNL     1       4.892  12.502 -24.986  0.00  0.00    +0.025 C 
ATOM     14  C21 UNL     1       4.706  11.564 -23.811  0.00  0.00    +0.040 C 
ATOM     15  C22 UNL     1       3.296  11.020 -23.689  0.00  0.00    +0.025 C 
ATOM     16  C23 UNL     1       2.245  12.064 -24.023  0.00  0.00    +0.092 C 
ATOM     17  C24 UNL     1       5.267  12.114 -22.486  0.00  0.00    +0.095 C 
ATOM     18  N6  UNL     1       6.326  11.136 -22.619  0.00  0.00    -0.276 N 
ATOM     19  C25 UNL     1       5.769  10.459 -23.766  0.00  0.00    +0.095 C 
ATOM     20  C26 UNL     1       7.442  10.958 -21.867  0.00  0.00    +0.249 C 
ATOM     21  O2  UNL     1       7.757  11.671 -20.916  0.00  0.00    -0.270 OA
ENDROOT
BRANCH   1  24
ATOM     22  C1  UNL     1       2.219  19.636 -20.546  0.00  0.00    +0.031 C 
ATOM     23  C2  UNL     1       2.661  20.448 -21.720  0.00  0.00    -0.022 A 
ATOM     24  C3  UNL     1       2.839  19.865 -22.994  0.00  0.00    +0.002 A 
ATOM     25  C4  UNL     1       3.282  20.707 -24.041  0.00  0.00    +0.040 A 
ATOM     26  C5  UNL     1       3.518  22.054 -23.787  0.00  0.00    +0.104 A 
ATOM     27  C6  UNL     1       3.337  22.650 -22.538  0.00  0.00    +0.021 A 
ATOM     28  C7  UNL     1       2.905  21.807 -21.512  0.00  0.00    -0.003 A 
ATOM     29  N1  UNL     1       3.931  22.581 -24.979  0.00  0.00    -0.148 NA
ATOM     30  N2  UNL     1       3.985  21.693 -25.988  0.00  0.00    -0.146 NA
ATOM     31  C8  UNL     1       3.587  20.556 -25.415  0.00  0.00    +0.124 A 
ENDBRANCH   1  24
BRANCH   2  32
ATOM     32  C39 UNL     1       4.919  17.854 -22.426  0.00  0.00    +0.022 C 
ATOM     33  C40 UNL     1       5.941  16.820 -22.036  0.00  0.00    +0.005 C 
ATOM     34  C41 UNL     1       5.202  17.579 -20.973  0.00  0.00    +0.005 C 
ENDBRANCH   2  32
BRANCH  20  35
ATOM     35  C27 UNL     1       8.262   9.810 -22.313  0.00  0.00    +0.058 C 
ATOM     36  C28 UNL     1       8.199   8.688 -21.568  0.00  0.00    +0.005 C 
ENDBRANCH  20  35
BRANCH   6  37
ATOM     37  O1  UNL     1       0.430  19.054 -24.019  0.00  0.00    -0.465 OA
BRANCH  37  38
ATOM     38  C15 UNL     1      -0.611  19.130 -23.036  0.00  0.00    +0.308 C 
BRANCH  38  39
ATOM     39  C16 UNL     1      -0.997  20.556 -22.713  0.00  0.00    +0.438 C 
ATOM     40  F1  UNL     1      -2.340  20.709 -22.702  0.00  0.00    -0.166 F 
ATOM     41  F2  UNL     1      -0.506  21.412 -23.644  0.00  0.00    -0.166 F 
ATOM     42  F3  UNL     1      -0.537  20.958 -21.504  0.00  0.00    -0.166 F 
ENDBRANCH  38  39
ENDBRANCH  37  38
ENDBRANCH   6  37
BRANCH   8  43
ATOM     43  O3  UNL     1      -1.547  14.636 -25.326  0.00  0.00    -0.450 OA
BRANCH  43  44
ATOM     44  C29 UNL     1      -1.568  13.294 -25.787  0.00  0.00    +0.169 C 
ATOM     45  C30 UNL     1      -2.209  13.284 -27.162  0.00  0.00    +0.044 C 
ATOM     46  C31 UNL     1      -2.591  11.878 -27.613  0.00  0.00    +0.004 C 
ATOM     47  C32 UNL     1      -2.079  10.767 -26.706  0.00  0.00    +0.000 C 
ATOM     48  C33 UNL     1      -2.483  11.007 -25.266  0.00  0.00    +0.004 C 
ATOM     49  C34 UNL     1      -2.382  12.452 -24.825  0.00  0.00    +0.044 C 
BRANCH  47  50
ATOM     50  C35 UNL     1      -2.674   9.439 -27.153  0.00  0.00    +0.003 C 
BRANCH  50  51
ATOM     51  C36 UNL     1      -2.907   8.523 -25.971  0.00  0.00    +0.032 C 
BRANCH  51  52
ATOM     52  C37 UNL     1      -2.971   7.074 -26.419  0.00  0.00    +0.142 C 
BRANCH  52  53
ATOM     53  O4  UNL     1      -4.250   6.534 -26.083  0.00  0.00    -0.351 OA
ATOM     54  C38 UNL     1      -4.433   5.357 -26.875  0.00  0.00    +0.174 C 
ENDBRANCH  52  53
ENDBRANCH  51  52
ENDBRANCH  50  51
ENDBRANCH  47  50
ENDBRANCH  43  44
ENDBRANCH   8  43
TORSDOF 12
ENDMDL
