MODEL 1
REMARK VINA RESULT:    -7.066      0.000      0.000
REMARK INTER + INTRA:         -10.734
REMARK INTER:                  -9.544
REMARK INTRA:                  -1.191
REMARK UNBOUND:                -1.191
REMARK  Name = /tmp/tmpcb9t5s7z/5V90_candidate_0036.pdb
REMARK  6 active torsions:
REMARK  status: ('A' for Active; 'I' for Inactive)
REMARK    1  A    between atoms: C6_8  and  C15_21
REMARK    2  A    between atoms: C7_9  and  N3_12
REMARK    3  A    between atoms: N3_12  and  C9_13
REMARK    4  A    between atoms: N4_23  and  O2_24
REMARK    5  A    between atoms: O2_24  and  C16_25
REMARK    6  A    between atoms: C16_25  and  C17_26
REMARK                            x       y       z     vdW  Elec       q    Type
REMARK                         _______ _______ _______ _____ _____    ______ ____
ROOT
ATOM      1  C1  UNL     1     -18.997   8.210 -14.950  0.00  0.00    +0.132 C 
ATOM      2  N1  UNL     1     -19.031   9.285 -15.912  0.00  0.00    -0.307 N 
ATOM      3  C2  UNL     1     -17.958  10.059 -16.237  0.00  0.00    +0.179 A 
ATOM      4  N2  UNL     1     -18.282  10.952 -17.146  0.00  0.00    -0.222 NA
ATOM      5  C3  UNL     1     -19.618  10.741 -17.413  0.00  0.00    +0.127 A 
ATOM      6  C4  UNL     1     -20.109   9.690 -16.643  0.00  0.00    +0.081 A 
ATOM      7  C5  UNL     1     -21.429   9.249 -16.716  0.00  0.00    +0.025 A 
ATOM      8  C6  UNL     1     -22.285   9.916 -17.613  0.00  0.00    +0.076 A 
ATOM      9  C7  UNL     1     -21.842  11.001 -18.396  0.00  0.00    +0.104 A 
ATOM     10  C8  UNL     1     -20.492  11.396 -18.299  0.00  0.00    +0.174 A 
ATOM     11  F1  UNL     1     -20.028  12.399 -19.063  0.00  0.00    -0.201 F 
ENDROOT
BRANCH   8  12
ATOM     12  C15 UNL     1     -23.681   9.413 -17.698  0.00  0.00    +0.291 C 
ATOM     13  O1  UNL     1     -24.542   9.788 -16.910  0.00  0.00    -0.266 OA
ATOM     14  N4  UNL     1     -23.877   8.508 -18.727  0.00  0.00    -0.058 NA
BRANCH  14  15
ATOM     15  O2  UNL     1     -25.221   8.096 -18.880  0.00  0.00    -0.241 OA
BRANCH  15  16
ATOM     16  C16 UNL     1     -25.687   8.710 -20.073  0.00  0.00    +0.209 C 
BRANCH  16  17
ATOM     17  C17 UNL     1     -27.056   9.296 -19.812  0.00  0.00    +0.217 C 
ATOM     18  O3  UNL     1     -27.372   9.083 -18.443  0.00  0.00    -0.218 OA
ENDBRANCH  16  17
ENDBRANCH  15  16
ENDBRANCH  14  15
ENDBRANCH   8  12
BRANCH   9  19
ATOM     19  N3  UNL     1     -22.733  11.664 -19.278  0.00  0.00    -0.208 NA
BRANCH  19  20
ATOM     20  C9  UNL     1     -23.686  12.652 -18.944  0.00  0.00    +0.098 A 
ATOM     21  C10 UNL     1     -23.402  13.765 -18.142  0.00  0.00    +0.156 A 
ATOM     22  C11 UNL     1     -24.384  14.700 -17.825  0.00  0.00    +0.038 A 
ATOM     23  C12 UNL     1     -25.673  14.515 -18.308  0.00  0.00    +0.037 A 
ATOM     24  C13 UNL     1     -25.991  13.408 -19.086  0.00  0.00    +0.008 A 
ATOM     25  C14 UNL     1     -24.999  12.479 -19.394  0.00  0.00    +0.019 A 
ATOM     26 BR1  UNL     1     -27.011  15.772 -17.889  0.00  0.00    -0.049 Br
ATOM     27  F2  UNL     1     -22.175  13.933 -17.624  0.00  0.00    -0.203 F 
ENDBRANCH  19  20
ENDBRANCH   9  19
TORSDOF 6
ENDMDL
