MODEL 1
REMARK VINA RESULT:    -7.962      0.000      0.000
REMARK INTER + INTRA:         -12.113
REMARK INTER:                 -10.754
REMARK INTRA:                  -1.359
REMARK UNBOUND:                -1.359
REMARK  Name = /tmp/tmpl5lqfiu2/5V90_candidate_0073.pdb
REMARK  6 active torsions:
REMARK  status: ('A' for Active; 'I' for Inactive)
REMARK    1  A    between atoms: N2_5  and  C6_8
REMARK    2  A    between atoms: N3_11  and  C11_14
REMARK    3  A    between atoms: C13_16  and  O2_39
REMARK    4  A    between atoms: C14_17  and  N4_20
REMARK    5  A    between atoms: N7_27  and  C21_28
REMARK    6  A    between atoms: C26_33  and  P1_34
REMARK                            x       y       z     vdW  Elec       q    Type
REMARK                         _______ _______ _______ _____ _____    ______ ____
ROOT
ATOM      1  C11 UNL     1     -22.904  13.733 -18.166  0.00  0.00    +0.051 A 
ATOM      2  C12 UNL     1     -21.711  14.451 -18.022  0.00  0.00    +0.053 A 
ATOM      3  C13 UNL     1     -21.646  15.670 -17.334  0.00  0.00    +0.155 A 
ATOM      4  C14 UNL     1     -22.806  16.220 -16.767  0.00  0.00    +0.107 A 
ATOM      5  C15 UNL     1     -24.003  15.517 -16.919  0.00  0.00    +0.021 A 
ATOM      6  C16 UNL     1     -24.051  14.305 -17.610  0.00  0.00    +0.016 A 
ENDROOT
BRANCH   4   7
ATOM      7  N4  UNL     1     -22.727  17.445 -16.068  0.00  0.00    -0.175 NA
ATOM      8  C17 UNL     1     -22.984  18.750 -16.533  0.00  0.00    +0.242 A 
ATOM      9  N5  UNL     1     -23.319  18.988 -17.808  0.00  0.00    -0.210 NA
ATOM     10  C18 UNL     1     -23.537  20.268 -18.157  0.00  0.00    +0.116 A 
ATOM     11  C19 UNL     1     -23.424  21.341 -17.309  0.00  0.00    +0.110 A 
ATOM     12  C20 UNL     1     -23.060  21.032 -16.014  0.00  0.00    +0.167 A 
ATOM     13  N6  UNL     1     -22.848  19.748 -15.636  0.00  0.00    -0.194 NA
ATOM     14  N7  UNL     1     -22.905  22.003 -14.998  0.00  0.00    -0.193 NA
ATOM     15 CL1  UNL     1     -23.776  22.902 -17.919  0.00  0.00    -0.078 Cl
BRANCH  14  16
ATOM     16  C21 UNL     1     -22.155  23.196 -15.079  0.00  0.00    +0.075 A 
ATOM     17  C22 UNL     1     -20.877  23.114 -15.653  0.00  0.00    +0.017 A 
ATOM     18  C23 UNL     1     -20.063  24.236 -15.774  0.00  0.00    +0.001 A 
ATOM     19  C24 UNL     1     -20.528  25.467 -15.337  0.00  0.00    +0.000 A 
ATOM     20  C25 UNL     1     -21.814  25.568 -14.813  0.00  0.00    +0.004 A 
ATOM     21  C26 UNL     1     -22.651  24.449 -14.690  0.00  0.00    +0.045 A 
BRANCH  21  22
ATOM     22  P1  UNL     1     -24.294  24.761 -14.132  0.00  0.00    +0.137 P 
ATOM     23  O1  UNL     1     -25.394  24.301 -15.056  0.00  0.00    -0.315 OA
ATOM     24  C27 UNL     1     -24.544  24.038 -12.508  0.00  0.00    +0.072 C 
ATOM     25  C28 UNL     1     -24.490  26.519 -13.824  0.00  0.00    +0.072 C 
ENDBRANCH  21  22
ENDBRANCH  14  16
ENDBRANCH   4   7
BRANCH   1  29
ATOM     26  C6  UNL     1     -23.447   9.712 -19.311  0.00  0.00    +0.061 C 
ATOM     27  C7  UNL     1     -24.183  10.800 -20.067  0.00  0.00    +0.037 C 
ATOM     28  C8  UNL     1     -24.282  12.075 -19.260  0.00  0.00    +0.092 C 
ATOM     29  N3  UNL     1     -22.956  12.542 -18.885  0.00  0.00    -0.307 N 
ATOM     30  C9  UNL     1     -21.937  11.552 -18.577  0.00  0.00    +0.092 C 
ATOM     31  C10 UNL     1     -22.570  10.235 -18.185  0.00  0.00    +0.037 C 
BRANCH  26  36
ATOM     32  C1  UNL     1     -27.205   7.404 -20.821  0.00  0.00    +0.090 C 
ATOM     33  N1  UNL     1     -26.735   6.946 -19.525  0.00  0.00    -0.269 NA
ATOM     34  C2  UNL     1     -26.754   8.070 -18.591  0.00  0.00    +0.090 C 
ATOM     35  C3  UNL     1     -25.706   9.155 -18.854  0.00  0.00    +0.090 C 
ATOM     36  N2  UNL     1     -24.344   8.631 -18.933  0.00  0.00    -0.272 NA
ATOM     37  C4  UNL     1     -24.315   7.555 -19.925  0.00  0.00    +0.090 C 
ATOM     38  C5  UNL     1     -25.361   6.468 -19.663  0.00  0.00    +0.090 C 
ENDBRANCH  26  36
ENDBRANCH   1  29
BRANCH   3  39
ATOM     39  O2  UNL     1     -20.474  16.371 -17.183  0.00  0.00    -0.470 OA
ATOM     40  C29 UNL     1     -20.104  17.040 -18.383  0.00  0.00    +0.253 C 
ENDBRANCH   3  39
TORSDOF 6
ENDMDL
