MODEL 1
REMARK VINA RESULT:    -5.488      0.000      0.000
REMARK INTER + INTRA:          -7.821
REMARK INTER:                  -7.413
REMARK INTRA:                  -0.408
REMARK UNBOUND:                -0.408
REMARK  Name = /tmp/tmpuq931nxl/5V90_candidate_0057.pdb
REMARK  6 active torsions:
REMARK  status: ('A' for Active; 'I' for Inactive)
REMARK    1  A    between atoms: C2_2  and  C3_3
REMARK    2  A    between atoms: N1_5  and  C4_6
REMARK    3  A    between atoms: C4_6  and  C5_7
REMARK    4  A    between atoms: C4_6  and  C8_12
REMARK    5  A    between atoms: C5_7  and  C6_8
REMARK    6  A    between atoms: C6_8  and  C7_9
REMARK                            x       y       z     vdW  Elec       q    Type
REMARK                         _______ _______ _______ _____ _____    ______ ____
ROOT
ATOM      1  C4  UNL     1     -20.276  11.735 -17.761  0.00  0.00    +0.198 C 
ENDROOT
BRANCH   1   4
ATOM      2  C3  UNL     1     -20.359  14.225 -17.903  0.00  0.00    +0.259 C 
ATOM      3  O1  UNL     1     -21.521  14.308 -17.518  0.00  0.00    -0.272 OA
ATOM      4  N1  UNL     1     -19.663  13.030 -17.970  0.00  0.00    -0.194 NA
BRANCH   2   6
ATOM      5  C1  UNL     1     -20.333  16.618 -18.536  0.00  0.00    +0.030 C 
ATOM      6  C2  UNL     1     -19.481  15.390 -18.319  0.00  0.00    +0.169 C 
ATOM      7  N3  UNL     1     -18.792  15.088 -19.564  0.00  0.00    -0.123 NA
ENDBRANCH   2   6
ENDBRANCH   1   4
BRANCH   1   8
ATOM      8  C8  UNL     1     -19.299  10.764 -17.142  0.00  0.00    +0.384 C 
ATOM      9  O3  UNL     1     -19.427  10.184 -16.073  0.00  0.00    -0.244 OA
ATOM     10  O4  UNL     1     -18.224  10.611 -17.958  0.00  0.00    -0.244 OA
ENDBRANCH   1   8
BRANCH   1  11
ATOM     11  C5  UNL     1     -20.926  11.128 -18.986  0.00  0.00    +0.043 C 
BRANCH  11  12
ATOM     12  C6  UNL     1     -22.437  11.165 -18.910  0.00  0.00    +0.091 C 
BRANCH  12  13
ATOM     13  C7  UNL     1     -23.018   9.780 -18.902  0.00  0.00    +0.261 C 
ATOM     14  O2  UNL     1     -23.703   9.331 -19.816  0.00  0.00    -0.272 OA
ATOM     15  N2  UNL     1     -22.635   9.087 -17.778  0.00  0.00    -0.088 NA
ENDBRANCH  12  13
ENDBRANCH  11  12
ENDBRANCH   1  11
TORSDOF 6
ENDMDL
