MODEL 1
REMARK VINA RESULT:    -8.260      0.000      0.000
REMARK INTER + INTRA:         -11.906
REMARK INTER:                 -10.192
REMARK INTRA:                  -1.715
REMARK UNBOUND:                -1.715
REMARK  Name = /tmp/tmpvvc4ogtd/5V90_candidate_0065.pdb
REMARK  4 active torsions:
REMARK  status: ('A' for Active; 'I' for Inactive)
REMARK    1  A    between atoms: C3_3  and  N2_11
REMARK    2  A    between atoms: C4_4  and  C7_8
REMARK    3  A    between atoms: C11_14  and  C27_37
REMARK    4  A    between atoms: C23_31  and  C24_33
REMARK                            x       y       z     vdW  Elec       q    Type
REMARK                         _______ _______ _______ _____ _____    ______ ____
ROOT
ATOM      1  N2  UNL     1       3.458  13.405 -24.851  0.00  0.00    -0.257 N 
ATOM      2  C10 UNL     1       4.212  14.602 -24.835  0.00  0.00    +0.151 A 
ATOM      3  N3  UNL     1       5.554  14.536 -25.057  0.00  0.00    -0.227 NA
ATOM      4  C11 UNL     1       6.299  15.667 -25.021  0.00  0.00    +0.099 A 
ATOM      5  C12 UNL     1       5.728  16.902 -24.777  0.00  0.00    +0.076 A 
ATOM      6  C13 UNL     1       4.356  16.948 -24.579  0.00  0.00    +0.017 A 
ATOM      7  C14 UNL     1       3.553  15.807 -24.617  0.00  0.00    +0.050 A 
ATOM      8  C15 UNL     1       2.084  15.868 -24.424  0.00  0.00    +0.070 A 
ATOM      9  C16 UNL     1       1.386  14.705 -24.417  0.00  0.00    +0.125 A 
ATOM     10  C17 UNL     1       2.085  13.380 -24.678  0.00  0.00    +0.281 A 
ATOM     11  O1  UNL     1       1.435  12.333 -24.716  0.00  0.00    -0.265 OA
ATOM     12  N4  UNL     1       0.012  14.709 -24.152  0.00  0.00    -0.251 N 
ATOM     13  C18 UNL     1      -0.730  15.861 -23.935  0.00  0.00    +0.249 C 
ATOM     14  O2  UNL     1      -1.917  15.836 -23.602  0.00  0.00    -0.273 OA
ATOM     15  C19 UNL     1      -0.030  17.175 -24.223  0.00  0.00    +0.170 C 
ATOM     16  N5  UNL     1       1.448  17.102 -24.205  0.00  0.00    -0.297 N 
ATOM     17  C20 UNL     1       2.027  18.413 -24.515  0.00  0.00    +0.113 C 
ATOM     18  C21 UNL     1       1.564  19.476 -23.524  0.00  0.00    +0.115 C 
ATOM     19  N6  UNL     1       0.123  19.510 -23.371  0.00  0.00    -0.272 N 
ATOM     20  C22 UNL     1      -0.557  18.225 -23.247  0.00  0.00    +0.123 C 
ATOM     21  C23 UNL     1      -0.431  20.688 -22.919  0.00  0.00    +0.249 C 
ATOM     22  O3  UNL     1       0.211  21.728 -22.813  0.00  0.00    -0.270 OA
ATOM     23  C26 UNL     1      -0.716  13.474 -23.984  0.00  0.00    +0.120 C 
ATOM     24 CL1  UNL     1       6.612  18.373 -24.723  0.00  0.00    -0.081 Cl
ENDROOT
BRANCH   4  25
ATOM     25  C27 UNL     1       7.726  15.457 -25.250  0.00  0.00    +0.085 A 
ATOM     26  C28 UNL     1       8.597  15.085 -24.221  0.00  0.00    +0.199 A 
ATOM     27  C29 UNL     1       9.958  14.895 -24.445  0.00  0.00    +0.042 A 
ATOM     28  C30 UNL     1      10.477  15.080 -25.724  0.00  0.00    +0.006 A 
ATOM     29  C31 UNL     1       9.635  15.452 -26.768  0.00  0.00    +0.030 A 
ATOM     30  C32 UNL     1       8.276  15.637 -26.524  0.00  0.00    +0.145 A 
ATOM     31  F1  UNL     1       7.484  15.990 -27.549  0.00  0.00    -0.204 F 
ATOM     32  O4  UNL     1       8.129  14.885 -22.952  0.00  0.00    -0.286 OA
ENDBRANCH   4  25
BRANCH   1  35
ATOM     33  C1  UNL     1       3.925  12.487 -27.616  0.00  0.00    +0.033 C 
ATOM     34  C2  UNL     1       4.378  11.730 -26.413  0.00  0.00    -0.003 A 
ATOM     35  C3  UNL     1       4.167  12.190 -25.102  0.00  0.00    +0.078 A 
ATOM     36  C4  UNL     1       4.699  11.424 -24.049  0.00  0.00    +0.074 A 
ATOM     37  N1  UNL     1       5.371  10.257 -24.245  0.00  0.00    -0.247 NA
ATOM     38  C5  UNL     1       5.541   9.849 -25.520  0.00  0.00    +0.098 A 
ATOM     39  C6  UNL     1       5.072  10.541 -26.622  0.00  0.00    +0.018 A 
BRANCH  36  40
ATOM     40  C7  UNL     1       4.474  11.834 -22.624  0.00  0.00    +0.042 C 
ATOM     41  C8  UNL     1       4.239  10.623 -21.752  0.00  0.00    +0.006 C 
ATOM     42  C9  UNL     1       5.633  12.644 -22.092  0.00  0.00    +0.006 C 
ENDBRANCH  36  40
ENDBRANCH   1  35
BRANCH  21  43
ATOM     43  C24 UNL     1      -1.873  20.597 -22.589  0.00  0.00    +0.058 C 
ATOM     44  C25 UNL     1      -2.322  21.302 -21.550  0.00  0.00    +0.005 C 
ENDBRANCH  21  43
TORSDOF 4
ENDMDL
