MODEL 1
REMARK VINA RESULT:    -7.850      0.000      0.000
REMARK INTER + INTRA:         -10.942
REMARK INTER:                 -10.145
REMARK INTRA:                  -0.797
REMARK UNBOUND:                -0.797
REMARK  Name = /tmp/tmpxl13qjd7/5V90_candidate_0040.pdb
REMARK  5 active torsions:
REMARK  status: ('A' for Active; 'I' for Inactive)
REMARK    1  A    between atoms: C6_6  and  C7_8
REMARK    2  A    between atoms: N3_14  and  C11_15
REMARK    3  A    between atoms: N6_23  and  C16_24
REMARK    4  A    between atoms: C16_24  and  C17_25
REMARK    5  A    between atoms: C17_25  and  N7_26
REMARK                            x       y       z     vdW  Elec       q    Type
REMARK                         _______ _______ _______ _____ _____    ______ ____
ROOT
ATOM      1  C1  UNL     1     -23.152  19.302 -14.830  0.00  0.00    +0.025 C 
ATOM      2  C2  UNL     1     -22.723  19.343 -16.277  0.00  0.00    +0.085 C 
ATOM      3  C3  UNL     1     -22.215  18.026 -16.739  0.00  0.00    +0.028 A 
ATOM      4  C4  UNL     1     -20.902  18.062 -17.117  0.00  0.00    +0.058 A 
ATOM      5  C5  UNL     1     -20.439  16.811 -17.546  0.00  0.00    +0.013 A 
ATOM      6  C6  UNL     1     -21.430  15.839 -17.486  0.00  0.00    +0.047 A 
ATOM      7  S1  UNL     1     -22.921  16.517 -16.889  0.00  0.00    -0.088 S 
ATOM      8  C15 UNL     1     -20.404  19.399 -16.945  0.00  0.00    +0.249 C 
ATOM      9  O1  UNL     1     -19.274  19.797 -17.164  0.00  0.00    -0.270 OA
ATOM     10  N6  UNL     1     -21.489  20.125 -16.457  0.00  0.00    -0.274 N 
ATOM     11  C22 UNL     1     -23.832  19.859 -17.161  0.00  0.00    +0.025 C 
ENDROOT
BRANCH   6  12
ATOM     12  C7  UNL     1     -21.328  14.422 -17.850  0.00  0.00    +0.092 A 
ATOM     13  N1  UNL     1     -22.498  13.854 -18.224  0.00  0.00    -0.212 NA
ATOM     14  C8  UNL     1     -22.494  12.555 -18.575  0.00  0.00    +0.242 A 
ATOM     15  N2  UNL     1     -21.374  11.813 -18.564  0.00  0.00    -0.211 NA
ATOM     16  C9  UNL     1     -20.235  12.417 -18.185  0.00  0.00    +0.103 A 
ATOM     17  C10 UNL     1     -20.140  13.732 -17.812  0.00  0.00    +0.040 A 
ATOM     18  N3  UNL     1     -23.739  12.005 -18.958  0.00  0.00    -0.159 NA
BRANCH  18  19
ATOM     19  C11 UNL     1     -23.946  10.721 -19.343  0.00  0.00    +0.153 A 
ATOM     20  C12 UNL     1     -23.795  10.029 -20.525  0.00  0.00    +0.058 A 
ATOM     21  C13 UNL     1     -24.194   8.710 -20.226  0.00  0.00    +0.123 A 
ATOM     22  N4  UNL     1     -24.572   8.566 -18.953  0.00  0.00    -0.166 NA
ATOM     23  N5  UNL     1     -24.410   9.800 -18.448  0.00  0.00    -0.234 N 
ATOM     24  C14 UNL     1     -24.729  10.034 -17.055  0.00  0.00    +0.155 C 
ENDBRANCH  18  19
ENDBRANCH   6  12
BRANCH  10  25
ATOM     25  C16 UNL     1     -21.421  21.530 -16.123  0.00  0.00    +0.111 C 
BRANCH  25  26
ATOM     26  C17 UNL     1     -21.289  22.433 -17.342  0.00  0.00    +0.094 C 
BRANCH  26  27
ATOM     27  N7  UNL     1     -20.854  23.778 -16.977  0.00  0.00    -0.267 NA
ATOM     28  C18 UNL     1     -20.532  23.734 -15.549  0.00  0.00    +0.105 C 
ATOM     29  C19 UNL     1     -20.762  25.076 -14.864  0.00  0.00    +0.159 C 
ATOM     30  O2  UNL     1     -22.137  25.464 -14.860  0.00  0.00    -0.351 OA
ATOM     31  C20 UNL     1     -22.861  24.899 -15.952  0.00  0.00    +0.159 C 
ATOM     32  C21 UNL     1     -21.998  24.671 -17.191  0.00  0.00    +0.105 C 
ENDBRANCH  26  27
ENDBRANCH  25  26
ENDBRANCH  10  25
TORSDOF 5
ENDMDL
