MODEL 1
REMARK VINA RESULT:    -8.477      0.000      0.000
REMARK INTER + INTRA:         -10.088
REMARK INTER:                  -9.468
REMARK INTRA:                  -0.620
REMARK UNBOUND:                -0.620
REMARK  Name = /tmp/tmp7p8jrmxp/5V90_candidate_0012.pdb
REMARK  2 active torsions:
REMARK  status: ('A' for Active; 'I' for Inactive)
REMARK    1  A    between atoms: C9_12  and  C10_14
REMARK    2  A    between atoms: C22_28  and  C24_32
REMARK                            x       y       z     vdW  Elec       q    Type
REMARK                         _______ _______ _______ _____ _____    ______ ____
ROOT
ATOM      1  C10 UNL     1      -0.370  16.460 -23.743  0.00  0.00    +0.136 A 
ATOM      2  N5  UNL     1      -1.341  16.667 -22.829  0.00  0.00    -0.076 NA
ATOM      3  O1  UNL     1      -1.249  17.992 -22.443  0.00  0.00    -0.358 OA
ATOM      4  C11 UNL     1      -0.238  18.575 -23.123  0.00  0.00    +0.153 A 
ATOM      5  C12 UNL     1       0.350  17.663 -23.959  0.00  0.00    +0.033 A 
ATOM      6  C13 UNL     1       1.489  18.003 -24.830  0.00  0.00    +0.031 C 
ATOM      7  C14 UNL     1       2.178  19.276 -24.351  0.00  0.00    +0.006 C 
ATOM      8  C15 UNL     1       1.239  20.389 -23.886  0.00  0.00    +0.012 C 
ATOM      9  C16 UNL     1       0.109  20.003 -22.910  0.00  0.00    +0.073 C 
ATOM     10  C17 UNL     1      -1.077  20.876 -23.357  0.00  0.00    +0.012 C 
ATOM     11  C18 UNL     1      -2.134  21.099 -22.290  0.00  0.00    +0.006 C 
ATOM     12  C19 UNL     1      -1.546  21.798 -21.077  0.00  0.00    +0.033 C 
ATOM     13  C20 UNL     1      -0.282  21.127 -20.673  0.00  0.00    +0.006 A 
ATOM     14  C21 UNL     1       0.496  20.303 -21.469  0.00  0.00    -0.002 A 
ATOM     15  C22 UNL     1       1.618  19.803 -20.711  0.00  0.00    +0.088 A 
ATOM     16  C23 UNL     1       1.656  20.299 -19.420  0.00  0.00    +0.127 A 
ATOM     17  S1  UNL     1       0.330  21.335 -19.108  0.00  0.00    -0.073 S 
ATOM     18  N6  UNL     1       2.584  20.047 -18.461  0.00  0.00    -0.120 NA
ENDROOT
BRANCH   1  30
ATOM     19  C1  UNL     1       3.908  13.840 -22.988  0.00  0.00    +0.023 C 
ATOM     20  C2  UNL     1       3.595  13.809 -24.467  0.00  0.00    +0.093 C 
ATOM     21  C3  UNL     1       4.874  13.460 -25.221  0.00  0.00    +0.108 C 
ATOM     22  N1  UNL     1       4.697  13.296 -26.661  0.00  0.00    -0.215 NA
ATOM     23  C4  UNL     1       3.483  12.543 -26.972  0.00  0.00    +0.110 C 
ATOM     24  C5  UNL     1       2.790  11.878 -25.785  0.00  0.00    +0.112 C 
ATOM     25  N2  UNL     1       2.543  12.830 -24.710  0.00  0.00    -0.277 N 
ATOM     26  C6  UNL     1       1.286  13.423 -24.840  0.00  0.00    +0.220 A 
ATOM     27  N3  UNL     1       0.331  12.762 -25.510  0.00  0.00    -0.212 NA
ATOM     28  C7  UNL     1      -0.883  13.336 -25.584  0.00  0.00    +0.103 A 
ATOM     29  C8  UNL     1      -1.207  14.545 -25.031  0.00  0.00    +0.042 A 
ATOM     30  C9  UNL     1      -0.166  15.157 -24.375  0.00  0.00    +0.106 A 
ATOM     31  N4  UNL     1       1.071  14.616 -24.268  0.00  0.00    -0.212 NA
ENDBRANCH   1  30
BRANCH  15  32
ATOM     32  C24 UNL     1       2.611  18.885 -21.188  0.00  0.00    +0.102 C 
ATOM     33  N7  UNL     1       3.417  18.135 -21.554  0.00  0.00    -0.191 NA
ENDBRANCH  15  32
TORSDOF 2
ENDMDL
