MODEL 1
REMARK VINA RESULT:    -4.681      0.000      0.000
REMARK INTER + INTRA:          -5.600
REMARK INTER:                  -5.501
REMARK INTRA:                  -0.099
REMARK UNBOUND:                -0.099
REMARK  Name = /tmp/tmp0arr550w/5V90_candidate_0085.pdb
REMARK  3 active torsions:
REMARK  status: ('A' for Active; 'I' for Inactive)
REMARK    1  A    between atoms: C1_1  and  C2_2
REMARK    2  A    between atoms: C1_1  and  C4_7
REMARK    3  A    between atoms: C2_2  and  N1_3
REMARK                            x       y       z     vdW  Elec       q    Type
REMARK                         _______ _______ _______ _____ _____    ______ ____
ROOT
ATOM      1  C2  UNL     1     -19.893  12.503 -17.867  0.00  0.00    +0.141 C 
ENDROOT
BRANCH   1   2
ATOM      2  N1  UNL     1     -18.958  13.610 -18.041  0.00  0.00    -0.233 NA
ATOM      3  C3  UNL     1     -19.515  14.658 -18.577  0.00  0.00    +0.284 C 
ATOM      4  N2  UNL     1     -20.838  14.786 -18.964  0.00  0.00    -0.104 NA
ATOM      5  N3  UNL     1     -18.791  15.810 -18.822  0.00  0.00    -0.104 NA
ENDBRANCH   1   2
BRANCH   1   6
ATOM      6  C1  UNL     1     -19.138  11.211 -18.046  0.00  0.00    +0.140 C 
BRANCH   6   7
ATOM      7  C4  UNL     1     -19.057  10.564 -16.707  0.00  0.00    +0.367 C 
ATOM      8  O1  UNL     1     -18.201  10.797 -15.866  0.00  0.00    -0.246 OA
ATOM      9  O2  UNL     1     -20.067   9.675 -16.550  0.00  0.00    -0.246 OA
ENDBRANCH   6   7
ENDBRANCH   1   6
TORSDOF 3
ENDMDL
