MODEL 1
REMARK VINA RESULT:    -8.229      0.000      0.000
REMARK INTER + INTRA:         -12.060
REMARK INTER:                 -10.153
REMARK INTRA:                  -1.907
REMARK UNBOUND:                -1.907
REMARK  Name = /tmp/tmp7q8dh0cr/5V90_candidate_0093.pdb
REMARK  4 active torsions:
REMARK  status: ('A' for Active; 'I' for Inactive)
REMARK    1  A    between atoms: C7_9  and  C9_12
REMARK    2  A    between atoms: N3_14  and  C20_27
REMARK    3  A    between atoms: C11_16  and  C12_17
REMARK    4  A    between atoms: C26_34  and  C27_36
REMARK                            x       y       z     vdW  Elec       q    Type
REMARK                         _______ _______ _______ _____ _____    ______ ____
ROOT
ATOM      1  C9  UNL     1     -26.107  12.474 -18.128  0.00  0.00    +0.033 A 
ATOM      2  C10 UNL     1     -27.173  13.079 -17.490  0.00  0.00    +0.057 A 
ATOM      3  N3  UNL     1     -26.610  13.961 -16.605  0.00  0.00    -0.257 N 
ATOM      4  N4  UNL     1     -25.271  13.963 -16.629  0.00  0.00    -0.170 NA
ATOM      5  C11 UNL     1     -24.932  13.056 -17.559  0.00  0.00    +0.102 A 
ATOM      6  C29 UNL     1     -28.626  12.897 -17.663  0.00  0.00    +0.052 C 
ENDROOT
BRANCH   1  15
ATOM      7  C1  UNL     1     -26.523  11.075 -22.965  0.00  0.00    +0.032 C 
ATOM      8  C2  UNL     1     -26.462  10.777 -21.502  0.00  0.00    -0.010 A 
ATOM      9  C3  UNL     1     -26.541   9.430 -21.123  0.00  0.00    +0.018 A 
ATOM     10  C4  UNL     1     -26.479   9.150 -19.759  0.00  0.00    +0.104 A 
ATOM     11  C5  UNL     1     -26.344  10.128 -18.783  0.00  0.00    +0.041 A 
ATOM     12  C6  UNL     1     -26.316   9.402 -17.569  0.00  0.00    +0.124 A 
ATOM     13  N1  UNL     1     -26.437   8.085 -17.749  0.00  0.00    -0.146 NA
ATOM     14  N2  UNL     1     -26.520   7.962 -19.083  0.00  0.00    -0.148 NA
ATOM     15  C7  UNL     1     -26.268  11.481 -19.172  0.00  0.00    +0.016 A 
ATOM     16  C8  UNL     1     -26.329  11.794 -20.546  0.00  0.00    +0.054 A 
ATOM     17 CL1  UNL     1     -26.249  13.444 -21.077  0.00  0.00    -0.083 Cl
ENDBRANCH   1  15
BRANCH   5  18
ATOM     18  C12 UNL     1     -23.528  12.781 -17.854  0.00  0.00    +0.020 A 
ATOM     19  C13 UNL     1     -22.601  13.827 -17.942  0.00  0.00    +0.005 A 
ATOM     20  C14 UNL     1     -21.260  13.534 -18.229  0.00  0.00    +0.038 A 
ATOM     21  C15 UNL     1     -20.877  12.212 -18.423  0.00  0.00    +0.079 A 
ATOM     22  C16 UNL     1     -21.772  11.142 -18.348  0.00  0.00    +0.019 A 
ATOM     23  C17 UNL     1     -23.103  11.465 -18.061  0.00  0.00    +0.003 A 
ATOM     24  N5  UNL     1     -19.538  12.269 -18.680  0.00  0.00    -0.249 N 
ATOM     25  N6  UNL     1     -19.017  13.507 -18.665  0.00  0.00    -0.168 NA
ATOM     26  C18 UNL     1     -20.073  14.280 -18.393  0.00  0.00    +0.122 A 
ATOM     27  C19 UNL     1     -18.673  11.143 -18.961  0.00  0.00    +0.154 C 
ENDBRANCH   5  18
BRANCH   3  28
ATOM     28  C20 UNL     1     -27.302  14.857 -15.664  0.00  0.00    +0.105 C 
ATOM     29  C21 UNL     1     -26.396  15.455 -14.573  0.00  0.00    +0.028 C 
ATOM     30  C22 UNL     1     -26.891  16.806 -14.992  0.00  0.00    +0.040 C 
ATOM     31  C23 UNL     1     -27.558  16.268 -16.222  0.00  0.00    +0.028 C 
ATOM     32  C24 UNL     1     -25.906  17.916 -15.141  0.00  0.00    +0.095 C 
ATOM     33  N7  UNL     1     -26.760  18.670 -14.227  0.00  0.00    -0.276 N 
ATOM     34  C25 UNL     1     -27.720  17.585 -14.024  0.00  0.00    +0.095 C 
ATOM     35  C26 UNL     1     -26.410  19.607 -13.293  0.00  0.00    +0.249 C 
ATOM     36  O1  UNL     1     -27.077  19.862 -12.298  0.00  0.00    -0.270 OA
BRANCH  35  37
ATOM     37  C27 UNL     1     -25.142  20.298 -13.620  0.00  0.00    +0.058 C 
ATOM     38  C28 UNL     1     -24.797  21.356 -12.884  0.00  0.00    +0.005 C 
ENDBRANCH  35  37
ENDBRANCH   3  28
TORSDOF 4
ENDMDL
