MODEL 1
REMARK VINA RESULT:    -7.763      0.000      0.000
REMARK INTER + INTRA:         -12.746
REMARK INTER:                 -11.847
REMARK INTRA:                  -0.899
REMARK UNBOUND:                -0.899
REMARK  Name = /tmp/tmpechw33fm/5V90_candidate_0072.pdb
REMARK  9 active torsions:
REMARK  status: ('A' for Active; 'I' for Inactive)
REMARK    1  A    between atoms: C3_4  and  C10_11
REMARK    2  A    between atoms: N4_17  and  C14_18
REMARK    3  A    between atoms: C15_19  and  O2_36
REMARK    4  A    between atoms: C17_21  and  N6_29
REMARK    5  A    between atoms: C18_22  and  N5_24
REMARK    6  A    between atoms: C20_25  and  C21_27
REMARK    7  A    between atoms: N6_29  and  C24_31
REMARK    8  A    between atoms: C24_31  and  C25_32
REMARK    9  A    between atoms: C25_32  and  N7_33
REMARK                            x       y       z     vdW  Elec       q    Type
REMARK                         _______ _______ _______ _____ _____    ______ ____
ROOT
ATOM      1  C14 UNL     1     -23.625  14.327 -18.078  0.00  0.00    +0.109 A 
ATOM      2  C15 UNL     1     -24.643  13.550 -18.636  0.00  0.00    +0.155 A 
ATOM      3  C16 UNL     1     -24.358  12.252 -19.072  0.00  0.00    +0.054 A 
ATOM      4  C17 UNL     1     -23.083  11.663 -18.988  0.00  0.00    +0.067 A 
ATOM      5  C18 UNL     1     -22.081  12.440 -18.366  0.00  0.00    +0.088 A 
ATOM      6  C19 UNL     1     -22.363  13.744 -17.940  0.00  0.00    +0.038 A 
ENDROOT
BRANCH   1  13
ATOM      7  C10 UNL     1     -22.624  18.476 -15.838  0.00  0.00    +0.087 A 
ATOM      8  N2  UNL     1     -23.486  17.591 -16.383  0.00  0.00    -0.212 NA
ATOM      9  C11 UNL     1     -22.977  16.550 -17.068  0.00  0.00    +0.241 A 
ATOM     10  N3  UNL     1     -21.655  16.390 -17.256  0.00  0.00    -0.211 NA
ATOM     11  C12 UNL     1     -20.837  17.289 -16.685  0.00  0.00    +0.103 A 
ATOM     12  C13 UNL     1     -21.258  18.369 -15.955  0.00  0.00    +0.040 A 
ATOM     13  N4  UNL     1     -23.897  15.638 -17.626  0.00  0.00    -0.175 NA
BRANCH   7  17
ATOM     14  C1  UNL     1     -25.498  20.835 -12.589  0.00  0.00    +0.130 C 
ATOM     15  N1  UNL     1     -24.516  20.630 -13.632  0.00  0.00    -0.324 N 
ATOM     16  C2  UNL     1     -24.176  19.407 -14.118  0.00  0.00    +0.077 A 
ATOM     17  C3  UNL     1     -23.217  19.581 -15.098  0.00  0.00    +0.036 A 
ATOM     18  C4  UNL     1     -22.982  20.993 -15.192  0.00  0.00    +0.019 A 
ATOM     19  C5  UNL     1     -22.137  21.799 -15.984  0.00  0.00    +0.002 A 
ATOM     20  C6  UNL     1     -22.152  23.184 -15.818  0.00  0.00    +0.000 A 
ATOM     21  C7  UNL     1     -22.990  23.777 -14.882  0.00  0.00    +0.001 A 
ATOM     22  C8  UNL     1     -23.838  23.011 -14.081  0.00  0.00    +0.017 A 
ATOM     23  C9  UNL     1     -23.813  21.622 -14.258  0.00  0.00    +0.060 A 
ENDBRANCH   7  17
ENDBRANCH   1  13
BRANCH   5  24
ATOM     24  N5  UNL     1     -20.804  11.897 -18.147  0.00  0.00    -0.174 NA
ATOM     25  C20 UNL     1     -19.677  12.048 -18.924  0.00  0.00    +0.269 C 
ATOM     26  O1  UNL     1     -19.541  12.718 -19.939  0.00  0.00    -0.268 OA
BRANCH  25  27
ATOM     27  C21 UNL     1     -18.576  11.251 -18.336  0.00  0.00    +0.060 C 
ATOM     28  C22 UNL     1     -18.652  10.934 -17.042  0.00  0.00    +0.005 C 
ENDBRANCH  25  27
ENDBRANCH   5  24
BRANCH   4  29
ATOM     29  N6  UNL     1     -22.904  10.340 -19.438  0.00  0.00    -0.303 N 
ATOM     30  C23 UNL     1     -22.922   9.337 -18.388  0.00  0.00    +0.112 C 
BRANCH  29  31
ATOM     31  C24 UNL     1     -23.686   9.968 -20.613  0.00  0.00    +0.108 C 
BRANCH  31  32
ATOM     32  C25 UNL     1     -24.430   8.658 -20.380  0.00  0.00    +0.094 C 
BRANCH  32  33
ATOM     33  N7  UNL     1     -25.869   8.779 -20.582  0.00  0.00    -0.269 NA
ATOM     34  C26 UNL     1     -26.076   9.943 -21.424  0.00  0.00    +0.090 C 
ATOM     35  C27 UNL     1     -26.452   9.101 -19.287  0.00  0.00    +0.090 C 
ENDBRANCH  32  33
ENDBRANCH  31  32
ENDBRANCH  29  31
ENDBRANCH   4  29
BRANCH   2  36
ATOM     36  O2  UNL     1     -25.890  14.111 -18.742  0.00  0.00    -0.470 OA
ATOM     37  C28 UNL     1     -26.647  13.520 -19.791  0.00  0.00    +0.253 C 
ENDBRANCH   2  36
TORSDOF 9
ENDMDL
