MODEL 1
REMARK VINA RESULT:    -8.212      0.000      0.000
REMARK INTER + INTRA:         -13.961
REMARK INTER:                 -11.573
REMARK INTRA:                  -2.388
REMARK UNBOUND:                -2.388
REMARK  Name = /tmp/tmptockz1uf/5V90_candidate_0010.pdb
REMARK  7 active torsions:
REMARK  status: ('A' for Active; 'I' for Inactive)
REMARK    1  A    between atoms: C6_8  and  C7_10
REMARK    2  A    between atoms: C11_15  and  O2_41
REMARK    3  A    between atoms: C14_19  and  C19_27
REMARK    4  A    between atoms: C15_20  and  C18_23
REMARK    5  A    between atoms: C21_29  and  C27_38
REMARK    6  A    between atoms: O2_41  and  C28_42
REMARK    7  A    between atoms: C28_42  and  C29_43
REMARK                            x       y       z     vdW  Elec       q    Type
REMARK                         _______ _______ _______ _____ _____    ______ ____
ROOT
ATOM      1  C1  UNL     1     -28.828  13.906 -11.234  0.00  0.00    +0.023 C 
ATOM      2  C2  UNL     1     -29.069  14.699 -12.502  0.00  0.00    +0.095 C 
ATOM      3  C3  UNL     1     -27.766  14.729 -13.298  0.00  0.00    +0.112 C 
ATOM      4  N1  UNL     1     -27.834  15.696 -14.397  0.00  0.00    -0.291 N 
ATOM      5  C4  UNL     1     -28.146  17.070 -13.963  0.00  0.00    +0.094 C 
ATOM      6  C5  UNL     1     -28.732  17.160 -12.554  0.00  0.00    +0.113 C 
ATOM      7  N2  UNL     1     -29.578  16.033 -12.201  0.00  0.00    -0.274 N 
ATOM      8  C6  UNL     1     -30.837  16.317 -11.721  0.00  0.00    +0.249 C 
ATOM      9  O1  UNL     1     -31.226  17.460 -11.496  0.00  0.00    -0.270 OA
ATOM     10  C9  UNL     1     -29.110  17.686 -14.952  0.00  0.00    +0.023 C 
ATOM     11  C10 UNL     1     -26.583  15.675 -15.066  0.00  0.00    +0.138 A 
ATOM     12  N3  UNL     1     -25.728  16.690 -14.865  0.00  0.00    -0.179 NA
ATOM     13  C11 UNL     1     -24.576  16.652 -15.538  0.00  0.00    +0.321 A 
ATOM     14  N4  UNL     1     -24.174  15.673 -16.359  0.00  0.00    -0.192 NA
ATOM     15  C12 UNL     1     -25.027  14.659 -16.557  0.00  0.00    +0.116 A 
ATOM     16  C13 UNL     1     -24.699  13.604 -17.413  0.00  0.00    +0.158 A 
ATOM     17  C14 UNL     1     -25.557  12.513 -17.675  0.00  0.00    +0.033 A 
ATOM     18  C15 UNL     1     -26.809  12.487 -17.042  0.00  0.00    +0.074 A 
ATOM     19  C16 UNL     1     -27.141  13.533 -16.179  0.00  0.00    +0.008 A 
ATOM     20  C17 UNL     1     -26.270  14.608 -15.924  0.00  0.00    +0.052 A 
ATOM     21  F5  UNL     1     -23.503  13.628 -18.031  0.00  0.00    -0.203 F 
ENDROOT
BRANCH  17  22
ATOM     22  C19 UNL     1     -25.107  11.445 -18.576  0.00  0.00    +0.004 A 
ATOM     23  C20 UNL     1     -25.334  11.510 -19.990  0.00  0.00    +0.020 A 
ATOM     24  C21 UNL     1     -26.000  12.481 -20.839  0.00  0.00    +0.092 A 
ATOM     25  C22 UNL     1     -25.987  12.144 -22.178  0.00  0.00    +0.128 A 
ATOM     26  S1  UNL     1     -25.190  10.664 -22.439  0.00  0.00    -0.066 S 
ATOM     27  C23 UNL     1     -24.848  10.447 -20.768  0.00  0.00    +0.059 A 
ATOM     28  C24 UNL     1     -24.168   9.360 -20.189  0.00  0.00    +0.146 A 
ATOM     29  C25 UNL     1     -23.952   9.317 -18.820  0.00  0.00    +0.030 A 
ATOM     30  C26 UNL     1     -24.414  10.351 -18.027  0.00  0.00    +0.002 A 
ATOM     31  F4  UNL     1     -23.715   8.352 -20.951  0.00  0.00    -0.204 F 
ATOM     32  N5  UNL     1     -26.520  12.841 -23.213  0.00  0.00    -0.120 NA
BRANCH  24  33
ATOM     33  C27 UNL     1     -26.633  13.682 -20.379  0.00  0.00    +0.102 C 
ATOM     34  N6  UNL     1     -27.105  14.661 -19.975  0.00  0.00    -0.191 NA
ENDBRANCH  24  33
ENDBRANCH  17  22
BRANCH  18  35
ATOM     35  C18 UNL     1     -27.814  11.388 -17.250  0.00  0.00    +0.419 C 
ATOM     36  F1  UNL     1     -28.297  11.323 -18.521  0.00  0.00    -0.166 F 
ATOM     37  F2  UNL     1     -28.904  11.524 -16.447  0.00  0.00    -0.166 F 
ATOM     38  F3  UNL     1     -27.300  10.155 -16.983  0.00  0.00    -0.166 F 
ENDBRANCH  18  35
BRANCH   8  39
ATOM     39  C7  UNL     1     -31.702  15.131 -11.518  0.00  0.00    +0.058 C 
ATOM     40  C8  UNL     1     -32.335  14.996 -10.353  0.00  0.00    +0.005 C 
ENDBRANCH   8  39
BRANCH  13  41
ATOM     41  O2  UNL     1     -23.709  17.685 -15.269  0.00  0.00    -0.445 OA
BRANCH  41  42
ATOM     42  C28 UNL     1     -23.384  18.302 -16.510  0.00  0.00    +0.223 C 
BRANCH  42  43
ATOM     43  C29 UNL     1     -21.880  18.437 -16.731  0.00  0.00    +0.089 C 
ATOM     44  C30 UNL     1     -21.272  17.048 -16.742  0.00  0.00    +0.020 C 
ATOM     45  C31 UNL     1     -20.315  17.009 -17.912  0.00  0.00    +0.019 C 
ATOM     46  C32 UNL     1     -20.298  18.412 -18.475  0.00  0.00    +0.072 C 
ATOM     47  N7  UNL     1     -21.555  19.024 -18.042  0.00  0.00    -0.269 NA
ATOM     48  C33 UNL     1     -21.268  20.449 -17.805  0.00  0.00    +0.108 C 
ATOM     49  C34 UNL     1     -21.237  20.690 -16.306  0.00  0.00    +0.178 C 
ATOM     50  C35 UNL     1     -21.205  19.311 -15.692  0.00  0.00    +0.055 C 
ATOM     51  F6  UNL     1     -20.088  21.336 -15.972  0.00  0.00    -0.236 F 
ENDBRANCH  42  43
ENDBRANCH  41  42
ENDBRANCH  13  41
TORSDOF 7
ENDMDL
