MODEL 1
REMARK VINA RESULT:    -7.726      0.000      0.000
REMARK INTER + INTRA:          -9.555
REMARK INTER:                  -9.081
REMARK INTRA:                  -0.474
REMARK UNBOUND:                -0.474
REMARK  Name = /tmp/tmp5mqusu17/5V90_candidate_0087.pdb
REMARK  3 active torsions:
REMARK  status: ('A' for Active; 'I' for Inactive)
REMARK    1  A    between atoms: C3_3  and  C5_7
REMARK    2  A    between atoms: N2_9  and  C6_10
REMARK    3  A    between atoms: C9_13  and  C12_16
REMARK                            x       y       z     vdW  Elec       q    Type
REMARK                         _______ _______ _______ _____ _____    ______ ____
ROOT
ATOM      1  C6  UNL     1      -1.804  14.386 -25.121  0.00  0.00    +0.074 A 
ATOM      2  C7  UNL     1      -2.226  14.307 -26.447  0.00  0.00    +0.017 A 
ATOM      3  C8  UNL     1      -2.442  13.064 -27.039  0.00  0.00    +0.005 A 
ATOM      4  C9  UNL     1      -2.228  11.888 -26.317  0.00  0.00    +0.072 A 
ATOM      5  C10 UNL     1      -1.819  11.974 -24.985  0.00  0.00    +0.005 A 
ATOM      6  C11 UNL     1      -1.603  13.216 -24.391  0.00  0.00    +0.017 A 
ENDROOT
BRANCH   4   7
ATOM      7  C12 UNL     1      -2.497  10.555 -26.943  0.00  0.00    +0.419 C 
ATOM      8  F1  UNL     1      -3.493  10.589 -27.871  0.00  0.00    -0.166 F 
ATOM      9  F2  UNL     1      -2.869   9.608 -26.039  0.00  0.00    -0.166 F 
ATOM     10  F3  UNL     1      -1.404  10.055 -27.582  0.00  0.00    -0.166 F 
ENDBRANCH   4   7
BRANCH   1  13
ATOM     11  C5  UNL     1      -0.396  16.296 -24.377  0.00  0.00    +0.273 C 
ATOM     12  O2  UNL     1       0.708  15.822 -24.631  0.00  0.00    -0.268 OA
ATOM     13  N2  UNL     1      -1.606  15.664 -24.588  0.00  0.00    -0.175 NA
BRANCH  11  16
ATOM     14  C1  UNL     1       1.110  19.194 -25.138  0.00  0.00    +0.076 C 
ATOM     15  C2  UNL     1       0.103  18.797 -24.142  0.00  0.00    +0.159 A 
ATOM     16  C3  UNL     1      -0.529  17.619 -23.810  0.00  0.00    +0.111 A 
ATOM     17  C4  UNL     1      -1.377  17.995 -22.746  0.00  0.00    +0.148 A 
ATOM     18  N1  UNL     1      -1.275  19.293 -22.449  0.00  0.00    -0.076 NA
ATOM     19  O1  UNL     1      -0.338  19.797 -23.333  0.00  0.00    -0.358 OA
ENDBRANCH  11  16
ENDBRANCH   1  13
TORSDOF 3
ENDMDL
