MODEL 1
REMARK VINA RESULT:    -9.327      0.000      0.000
REMARK INTER + INTRA:         -11.139
REMARK INTER:                 -10.963
REMARK INTRA:                  -0.176
REMARK UNBOUND:                -0.176
REMARK  Name = /tmp/tmpmo7_q0f4/5V90_candidate_0047.pdb
REMARK  3 active torsions:
REMARK  status: ('A' for Active; 'I' for Inactive)
REMARK    1  A    between atoms: C3_3  and  C23_31
REMARK    2  A    between atoms: N1_6  and  C18_26
REMARK    3  A    between atoms: C11_17  and  N6_20
REMARK                            x       y       z     vdW  Elec       q    Type
REMARK                         _______ _______ _______ _____ _____    ______ ____
ROOT
ATOM      1  C1  UNL     1     -26.045  12.712 -19.132  0.00  0.00    +0.031 C 
ATOM      2  C2  UNL     1     -24.597  12.413 -18.913  0.00  0.00    -0.010 A 
ATOM      3  C3  UNL     1     -24.017  11.224 -19.171  0.00  0.00    +0.087 A 
ATOM      4  C4  UNL     1     -22.556  11.025 -18.894  0.00  0.00    +0.264 A 
ATOM      5  O1  UNL     1     -22.029   9.941 -19.141  0.00  0.00    -0.267 OA
ATOM      6  N1  UNL     1     -21.855  12.096 -18.367  0.00  0.00    -0.282 N 
ATOM      7  C5  UNL     1     -22.451  13.347 -18.103  0.00  0.00    +0.150 A 
ATOM      8  N2  UNL     1     -21.680  14.331 -17.598  0.00  0.00    -0.195 NA
ATOM      9  C6  UNL     1     -22.246  15.533 -17.359  0.00  0.00    +0.244 A 
ATOM     10  N3  UNL     1     -23.553  15.758 -17.565  0.00  0.00    -0.210 NA
ATOM     11  C7  UNL     1     -24.281  14.751 -18.074  0.00  0.00    +0.105 A 
ATOM     12  C8  UNL     1     -23.791  13.503 -18.371  0.00  0.00    +0.050 A 
ATOM     13  N4  UNL     1     -21.410  16.522 -16.810  0.00  0.00    -0.159 NA
ATOM     14  C9  UNL     1     -21.650  17.917 -16.831  0.00  0.00    +0.155 A 
ATOM     15  N5  UNL     1     -22.503  18.498 -17.704  0.00  0.00    -0.226 NA
ATOM     16  C10 UNL     1     -22.631  19.844 -17.652  0.00  0.00    +0.115 A 
ATOM     17  C11 UNL     1     -21.968  20.697 -16.772  0.00  0.00    +0.067 A 
ATOM     18  C12 UNL     1     -21.074  20.063 -15.914  0.00  0.00    +0.019 A 
ATOM     19  C13 UNL     1     -20.908  18.680 -15.934  0.00  0.00    +0.037 A 
ENDROOT
BRANCH  17  20
ATOM     20  N6  UNL     1     -22.126  22.075 -16.785  0.00  0.00    -0.303 N 
ATOM     21  C14 UNL     1     -23.303  22.625 -16.114  0.00  0.00    +0.110 C 
ATOM     22  C15 UNL     1     -22.958  23.121 -14.709  0.00  0.00    +0.110 C 
ATOM     23  N7  UNL     1     -21.837  24.062 -14.705  0.00  0.00    -0.214 NA
ATOM     24  C16 UNL     1     -20.674  23.382 -15.278  0.00  0.00    +0.110 C 
ATOM     25  C17 UNL     1     -20.922  22.900 -16.706  0.00  0.00    +0.110 C 
ENDBRANCH  17  20
BRANCH   6  26
ATOM     26  C18 UNL     1     -20.439  12.002 -18.071  0.00  0.00    +0.090 C 
ATOM     27  C19 UNL     1     -20.098  10.846 -17.155  0.00  0.00    +0.023 C 
ATOM     28  C20 UNL     1     -18.636  10.555 -17.427  0.00  0.00    +0.002 C 
ATOM     29  C21 UNL     1     -18.316  11.140 -18.792  0.00  0.00    +0.002 C 
ATOM     30  C22 UNL     1     -19.585  11.790 -19.304  0.00  0.00    +0.023 C 
ENDBRANCH   6  26
BRANCH   3  31
ATOM     31  C23 UNL     1     -24.843  10.100 -19.713  0.00  0.00    +0.178 C 
ATOM     32  O2  UNL     1     -25.429   9.307 -18.976  0.00  0.00    -0.291 OA
ATOM     33  C24 UNL     1     -24.908   9.937 -21.202  0.00  0.00    +0.077 C 
ENDBRANCH   3  31
TORSDOF 3
ENDMDL
