MODEL 1
REMARK VINA RESULT:    -8.088      0.000      0.000
REMARK INTER + INTRA:         -15.678
REMARK INTER:                 -13.289
REMARK INTRA:                  -2.389
REMARK UNBOUND:                -2.389
REMARK  Name = /tmp/tmpcyo4ytwr/5V90_candidate_0049.pdb
REMARK  11 active torsions:
REMARK  status: ('A' for Active; 'I' for Inactive)
REMARK    1  A    between atoms: C4_5  and  C6_7
REMARK    2  A    between atoms: C6_7  and  C7_8
REMARK    3  A    between atoms: C9_14  and  C10_16
REMARK    4  A    between atoms: C10_16  and  C11_17
REMARK    5  A    between atoms: C11_17  and  C12_18
REMARK    6  A    between atoms: C12_18  and  C13_19
REMARK    7  A    between atoms: C13_19  and  C14_20
REMARK    8  A    between atoms: C18_27  and  C19_29
REMARK    9  A    between atoms: C19_29  and  C20_30
REMARK   10  A    between atoms: C22_32  and  O3_36
REMARK   11  A    between atoms: O3_36  and  C26_37
REMARK                            x       y       z     vdW  Elec       q    Type
REMARK                         _______ _______ _______ _____ _____    ______ ____
ROOT
ATOM      1  C14 UNL     1     -26.560  14.794 -17.615  0.00  0.00    +0.081 A 
ATOM      2  N5  UNL     1     -26.028  14.396 -18.787  0.00  0.00    -0.151 NA
ATOM      3  N6  UNL     1     -25.195  13.309 -18.822  0.00  0.00    -0.131 NA
ATOM      4  C15 UNL     1     -24.927  12.629 -17.688  0.00  0.00    +0.176 A 
ATOM      5  C16 UNL     1     -25.461  13.026 -16.474  0.00  0.00    +0.039 A 
ATOM      6  C17 UNL     1     -26.289  14.136 -16.432  0.00  0.00    +0.019 A 
ATOM      7  N7  UNL     1     -24.082  11.521 -17.648  0.00  0.00    -0.158 NA
ATOM      8  C18 UNL     1     -23.450  10.948 -18.729  0.00  0.00    +0.251 C 
ATOM      9  O2  UNL     1     -23.572  11.222 -19.917  0.00  0.00    -0.273 OA
ENDROOT
BRANCH   1  10
ATOM     10  C13 UNL     1     -27.480  15.966 -17.620  0.00  0.00    +0.048 C 
BRANCH  10  11
ATOM     11  C12 UNL     1     -27.875  16.306 -16.198  0.00  0.00    +0.007 C 
BRANCH  11  12
ATOM     12  C11 UNL     1     -27.540  17.751 -15.902  0.00  0.00    +0.007 C 
BRANCH  12  13
ATOM     13  C10 UNL     1     -26.768  17.870 -14.609  0.00  0.00    +0.055 C 
BRANCH  13  20
ATOM     14  C7  UNL     1     -21.530  17.726 -17.206  0.00  0.00    +0.253 C 
ATOM     15  O1  UNL     1     -22.060  16.657 -17.501  0.00  0.00    -0.273 OA
ATOM     16  N2  UNL     1     -21.961  18.668 -16.291  0.00  0.00    -0.153 NA
ATOM     17  C8  UNL     1     -23.171  18.665 -15.637  0.00  0.00    +0.208 A 
ATOM     18  N3  UNL     1     -23.466  19.469 -14.636  0.00  0.00    -0.124 NA
ATOM     19  N4  UNL     1     -24.750  19.261 -14.162  0.00  0.00    -0.144 NA
ATOM     20  C9  UNL     1     -25.381  18.332 -14.844  0.00  0.00    +0.112 A 
ATOM     21  S1  UNL     1     -24.459  17.638 -16.100  0.00  0.00    -0.033 S 
BRANCH  14  22
ATOM     22  C6  UNL     1     -20.220  18.142 -17.804  0.00  0.00    +0.133 C 
BRANCH  22  27
ATOM     23  C1  UNL     1     -19.637  21.500 -19.364  0.00  0.00    +0.003 A 
ATOM     24  C2  UNL     1     -20.719  21.569 -20.231  0.00  0.00    +0.021 A 
ATOM     25  C3  UNL     1     -21.581  20.490 -20.266  0.00  0.00    +0.098 A 
ATOM     26  N1  UNL     1     -21.442  19.380 -19.505  0.00  0.00    -0.248 NA
ATOM     27  C4  UNL     1     -20.373  19.348 -18.673  0.00  0.00    +0.068 A 
ATOM     28  C5  UNL     1     -19.454  20.379 -18.565  0.00  0.00    +0.015 A 
ENDBRANCH  22  27
ENDBRANCH  14  22
ENDBRANCH  13  20
ENDBRANCH  12  13
ENDBRANCH  11  12
ENDBRANCH  10  11
ENDBRANCH   1  10
BRANCH   8  29
ATOM     29  C19 UNL     1     -22.524   9.862 -18.246  0.00  0.00    +0.114 C 
BRANCH  29  30
ATOM     30  C20 UNL     1     -21.182  10.381 -17.838  0.00  0.00    -0.010 A 
ATOM     31  C21 UNL     1     -20.646  11.519 -18.443  0.00  0.00    +0.033 A 
ATOM     32  C22 UNL     1     -19.395  11.999 -18.066  0.00  0.00    +0.147 A 
ATOM     33  C23 UNL     1     -18.690  11.347 -17.059  0.00  0.00    +0.037 A 
ATOM     34  C24 UNL     1     -19.222  10.219 -16.444  0.00  0.00    +0.003 A 
ATOM     35  C25 UNL     1     -20.467   9.733 -16.833  0.00  0.00    -0.004 A 
BRANCH  32  36
ATOM     36  O3  UNL     1     -18.963  13.106 -18.740  0.00  0.00    -0.404 OA
BRANCH  36  37
ATOM     37  C26 UNL     1     -19.598  14.329 -18.405  0.00  0.00    +0.575 C 
ATOM     38  F1  UNL     1     -20.643  14.570 -19.221  0.00  0.00    -0.133 F 
ATOM     39  F2  UNL     1     -20.013  14.332 -17.123  0.00  0.00    -0.133 F 
ATOM     40  F3  UNL     1     -18.707  15.332 -18.562  0.00  0.00    -0.133 F 
ENDBRANCH  36  37
ENDBRANCH  32  36
ENDBRANCH  29  30
ENDBRANCH   8  29
TORSDOF 11
ENDMDL
