MODEL 1
REMARK VINA RESULT:    -8.277      0.000      0.000
REMARK INTER + INTRA:         -13.802
REMARK INTER:                 -12.148
REMARK INTRA:                  -1.654
REMARK UNBOUND:                -1.654
REMARK  Name = /tmp/tmpcbtv03vo/5V90_candidate_0002.pdb
REMARK  8 active torsions:
REMARK  status: ('A' for Active; 'I' for Inactive)
REMARK    1  A    between atoms: C2_2  and  C3_3
REMARK    2  A    between atoms: C4_4  and  N3_16
REMARK    3  A    between atoms: C7_7  and  N1_9
REMARK    4  A    between atoms: C16_20  and  C26_35
REMARK    5  A    between atoms: N6_23  and  C18_24
REMARK    6  A    between atoms: C18_24  and  C19_25
REMARK    7  A    between atoms: C19_25  and  C20_26
REMARK    8  A    between atoms: C20_26  and  N7_27
REMARK                            x       y       z     vdW  Elec       q    Type
REMARK                         _______ _______ _______ _____ _____    ______ ____
ROOT
ATOM      1  N3  UNL     1     -21.837  15.671 -18.183  0.00  0.00    -0.178 NA
ATOM      2  C14 UNL     1     -21.073  14.498 -18.016  0.00  0.00    +0.242 A 
ATOM      3  N4  UNL     1     -19.824  14.534 -17.533  0.00  0.00    -0.211 NA
ATOM      4  C15 UNL     1     -19.179  13.364 -17.412  0.00  0.00    +0.109 A 
ATOM      5  C16 UNL     1     -19.709  12.150 -17.746  0.00  0.00    +0.124 A 
ATOM      6  C17 UNL     1     -20.992  12.176 -18.233  0.00  0.00    +0.156 A 
ATOM      7  N5  UNL     1     -21.666  13.339 -18.364  0.00  0.00    -0.196 NA
ATOM      8  N6  UNL     1     -21.602  10.960 -18.594  0.00  0.00    -0.220 NA
ENDROOT
BRANCH   1  10
ATOM      9  C3  UNL     1     -22.089  17.677 -16.838  0.00  0.00    -0.006 A 
ATOM     10  C4  UNL     1     -21.482  17.010 -17.912  0.00  0.00    +0.070 A 
ATOM     11  C5  UNL     1     -20.542  17.712 -18.669  0.00  0.00    +0.018 A 
ATOM     12  C6  UNL     1     -20.209  19.032 -18.366  0.00  0.00    +0.016 A 
ATOM     13  C7  UNL     1     -20.783  19.705 -17.283  0.00  0.00    +0.048 A 
ATOM     14  C8  UNL     1     -21.736  19.000 -16.541  0.00  0.00    +0.012 A 
BRANCH  13  15
ATOM     15  N1  UNL     1     -20.478  21.036 -17.003  0.00  0.00    -0.305 N 
ATOM     16  C9  UNL     1     -20.642  21.967 -18.118  0.00  0.00    +0.108 C 
ATOM     17  C10 UNL     1     -20.479  23.408 -17.638  0.00  0.00    +0.094 C 
ATOM     18  N2  UNL     1     -21.465  23.831 -16.641  0.00  0.00    -0.269 NA
ATOM     19  C11 UNL     1     -21.879  22.702 -15.801  0.00  0.00    +0.094 C 
ATOM     20  C12 UNL     1     -20.908  21.522 -15.693  0.00  0.00    +0.108 C 
ATOM     21  C13 UNL     1     -20.803  24.794 -15.780  0.00  0.00    +0.090 C 
ENDBRANCH  13  15
BRANCH   9  23
ATOM     22  C1  UNL     1     -24.053  18.022 -15.387  0.00  0.00    +0.005 C 
ATOM     23  C2  UNL     1     -23.101  17.002 -15.969  0.00  0.00    +0.028 C 
ENDBRANCH   9  23
ENDBRANCH   1  10
BRANCH   5  24
ATOM     24  C26 UNL     1     -18.915  10.916 -17.575  0.00  0.00    +0.423 C 
ATOM     25  F1  UNL     1     -17.947  11.023 -16.622  0.00  0.00    -0.166 F 
ATOM     26  F2  UNL     1     -19.670   9.844 -17.194  0.00  0.00    -0.166 F 
ATOM     27  F3  UNL     1     -18.285  10.516 -18.715  0.00  0.00    -0.166 F 
ENDBRANCH   5  24
BRANCH   8  28
ATOM     28  C18 UNL     1     -22.948  11.158 -19.108  0.00  0.00    +0.116 C 
BRANCH  28  29
ATOM     29  C19 UNL     1     -23.930  10.853 -18.004  0.00  0.00    +0.045 C 
BRANCH  29  30
ATOM     30  C20 UNL     1     -25.243  11.534 -18.309  0.00  0.00    +0.095 C 
BRANCH  30  31
ATOM     31  N7  UNL     1     -25.249  12.901 -17.849  0.00  0.00    -0.277 N 
ATOM     32  C21 UNL     1     -25.011  13.117 -16.436  0.00  0.00    +0.125 C 
ATOM     33  C22 UNL     1     -26.215  13.731 -15.732  0.00  0.00    +0.164 C 
ATOM     34  O1  UNL     1     -26.216  15.147 -15.898  0.00  0.00    -0.351 OA
ATOM     35  C23 UNL     1     -26.655  15.448 -17.220  0.00  0.00    +0.152 C 
ATOM     36  C24 UNL     1     -25.491  15.309 -18.173  0.00  0.00    +0.117 C 
ATOM     37  C25 UNL     1     -25.504  13.921 -18.742  0.00  0.00    +0.228 C 
ATOM     38  O2  UNL     1     -25.724  13.724 -19.936  0.00  0.00    -0.275 OA
ENDBRANCH  30  31
ENDBRANCH  29  30
ENDBRANCH  28  29
ENDBRANCH   8  28
TORSDOF 8
ENDMDL
