MODEL 1
REMARK VINA RESULT:   -10.431      0.000      0.000
REMARK INTER + INTRA:         -13.246
REMARK INTER:                 -12.870
REMARK INTRA:                  -0.376
REMARK UNBOUND:                -0.376
REMARK  Name = /tmp/tmpvrx_0y2i/5V90_candidate_0089.pdb
REMARK  4 active torsions:
REMARK  status: ('A' for Active; 'I' for Inactive)
REMARK    1  A    between atoms: C7_10  and  O2_12
REMARK    2  A    between atoms: O2_12  and  C9_13
REMARK    3  A    between atoms: C17_22  and  N3_23
REMARK    4  A    between atoms: N4_26  and  C19_27
REMARK                            x       y       z     vdW  Elec       q    Type
REMARK                         _______ _______ _______ _____ _____    ______ ____
ROOT
ATOM      1  C9  UNL     1     -20.511  14.510 -18.540  0.00  0.00    +0.145 A 
ATOM      2  C10 UNL     1     -19.790  15.710 -18.529  0.00  0.00    +0.036 A 
ATOM      3  C11 UNL     1     -20.362  16.817 -17.927  0.00  0.00    +0.020 A 
ATOM      4  C12 UNL     1     -21.624  16.703 -17.329  0.00  0.00    +0.135 A 
ATOM      5  C13 UNL     1     -22.346  15.526 -17.310  0.00  0.00    +0.040 A 
ATOM      6  C14 UNL     1     -21.765  14.414 -17.917  0.00  0.00    +0.041 A 
ATOM      7  O3  UNL     1     -22.071  17.895 -16.786  0.00  0.00    -0.477 OA
ATOM      8  C15 UNL     1     -20.962  18.856 -16.948  0.00  0.00    +0.192 C 
ATOM      9  C16 UNL     1     -19.858  18.201 -17.778  0.00  0.00    +0.091 C 
ATOM     10  C17 UNL     1     -20.659  19.349 -18.335  0.00  0.00    +0.145 C 
ENDROOT
BRANCH  10  11
ATOM     11  N3  UNL     1     -20.062  20.618 -18.558  0.00  0.00    -0.185 NA
ATOM     12  C18 UNL     1     -20.077  21.219 -19.809  0.00  0.00    +0.344 C 
ATOM     13  O4  UNL     1     -20.628  20.722 -20.789  0.00  0.00    -0.249 OA
ATOM     14  N4  UNL     1     -19.451  22.457 -19.779  0.00  0.00    -0.159 NA
BRANCH  14  15
ATOM     15  C19 UNL     1     -19.067  23.218 -20.892  0.00  0.00    +0.105 A 
ATOM     16  C20 UNL     1     -20.002  24.139 -21.367  0.00  0.00    +0.051 A 
ATOM     17  C21 UNL     1     -19.690  24.935 -22.463  0.00  0.00    +0.169 A 
ATOM     18  C22 UNL     1     -18.450  24.832 -23.079  0.00  0.00    +0.170 A 
ATOM     19  C23 UNL     1     -17.496  23.944 -22.597  0.00  0.00    +0.063 A 
ATOM     20  C24 UNL     1     -17.808  23.146 -21.499  0.00  0.00    +0.158 A 
ATOM     21  F1  UNL     1     -16.839  22.377 -20.985  0.00  0.00    -0.203 F 
ATOM     22  F2  UNL     1     -18.156  25.604 -24.133  0.00  0.00    -0.202 F 
ATOM     23  F3  UNL     1     -20.597  25.809 -22.920  0.00  0.00    -0.202 F 
ENDBRANCH  14  15
ENDBRANCH  10  11
BRANCH   1  24
ATOM     24  O2  UNL     1     -20.001  13.340 -19.061  0.00  0.00    -0.454 OA
BRANCH  24  34
ATOM     25  C1  UNL     1     -22.170  11.523 -19.111  0.00  0.00    +0.042 C 
ATOM     26  C2  UNL     1     -22.729  10.193 -19.557  0.00  0.00    +0.092 C 
ATOM     27  C3  UNL     1     -22.927   9.271 -18.381  0.00  0.00    +0.247 C 
ATOM     28  O1  UNL     1     -23.928   8.563 -18.299  0.00  0.00    -0.273 OA
ATOM     29  N1  UNL     1     -21.897   9.250 -17.470  0.00  0.00    -0.161 NA
ATOM     30  C4  UNL     1     -20.858  10.191 -17.455  0.00  0.00    +0.153 A 
ATOM     31  N2  UNL     1     -19.807   9.963 -16.641  0.00  0.00    -0.227 NA
ATOM     32  C5  UNL     1     -18.808  10.875 -16.652  0.00  0.00    +0.103 A 
ATOM     33  C6  UNL     1     -18.811  12.020 -17.425  0.00  0.00    +0.058 A 
ATOM     34  C7  UNL     1     -19.927  12.250 -18.223  0.00  0.00    +0.146 A 
ATOM     35  C8  UNL     1     -20.961  11.318 -18.263  0.00  0.00    +0.046 A 
ENDBRANCH  24  34
ENDBRANCH   1  24
TORSDOF 4
ENDMDL
