MODEL 1
REMARK VINA RESULT:    -8.933      0.000      0.000
REMARK INTER + INTRA:         -12.814
REMARK INTER:                 -11.022
REMARK INTRA:                  -1.792
REMARK UNBOUND:                -1.792
REMARK  Name = /tmp/tmpt0qedu8j/5V90_candidate_0064.pdb
REMARK  4 active torsions:
REMARK  status: ('A' for Active; 'I' for Inactive)
REMARK    1  A    between atoms: C7_9  and  C9_12
REMARK    2  A    between atoms: N3_14  and  C20_27
REMARK    3  A    between atoms: C11_16  and  C12_17
REMARK    4  A    between atoms: C26_34  and  C27_36
REMARK                            x       y       z     vdW  Elec       q    Type
REMARK                         _______ _______ _______ _____ _____    ______ ____
ROOT
ATOM      1  C9  UNL     1       1.342  17.008 -23.568  0.00  0.00    +0.033 A 
ATOM      2  C10 UNL     1       0.192  16.323 -23.227  0.00  0.00    +0.057 A 
ATOM      3  N3  UNL     1       0.317  15.096 -23.808  0.00  0.00    -0.257 N 
ATOM      4  N4  UNL     1       1.463  14.927 -24.484  0.00  0.00    -0.170 NA
ATOM      5  C11 UNL     1       2.109  16.099 -24.367  0.00  0.00    +0.102 A 
ATOM      6  C29 UNL     1      -0.991  16.715 -22.437  0.00  0.00    +0.052 C 
ENDROOT
BRANCH   1  15
ATOM      7  C1  UNL     1       3.296  20.493 -20.477  0.00  0.00    +0.032 C 
ATOM      8  C2  UNL     1       2.518  20.082 -21.687  0.00  0.00    -0.010 A 
ATOM      9  C3  UNL     1       1.979  21.107 -22.476  0.00  0.00    +0.018 A 
ATOM     10  C4  UNL     1       1.258  20.726 -23.606  0.00  0.00    +0.104 A 
ATOM     11  C5  UNL     1       1.056  19.403 -23.973  0.00  0.00    +0.041 A 
ATOM     12  C6  UNL     1       0.283  19.489 -25.154  0.00  0.00    +0.124 A 
ATOM     13  N1  UNL     1       0.010  20.747 -25.509  0.00  0.00    -0.146 NA
ATOM     14  N2  UNL     1       0.616  21.472 -24.557  0.00  0.00    -0.148 NA
ATOM     15  C7  UNL     1       1.597  18.376 -23.172  0.00  0.00    +0.016 A 
ATOM     16  C8  UNL     1       2.333  18.733 -22.023  0.00  0.00    +0.054 A 
ATOM     17 CL1  UNL     1       3.026  17.508 -21.006  0.00  0.00    -0.083 Cl
ENDBRANCH   1  15
BRANCH   5  18
ATOM     18  C12 UNL     1       3.409  16.296 -25.004  0.00  0.00    +0.020 A 
ATOM     19  C13 UNL     1       4.259  15.199 -25.208  0.00  0.00    +0.005 A 
ATOM     20  C14 UNL     1       5.495  15.400 -25.838  0.00  0.00    +0.038 A 
ATOM     21  C15 UNL     1       5.863  16.682 -26.236  0.00  0.00    +0.079 A 
ATOM     22  C16 UNL     1       5.050  17.799 -26.037  0.00  0.00    +0.019 A 
ATOM     23  C17 UNL     1       3.819  17.568 -25.413  0.00  0.00    +0.003 A 
ATOM     24  N5  UNL     1       7.093  16.532 -26.809  0.00  0.00    -0.249 N 
ATOM     25  N6  UNL     1       7.558  15.272 -26.817  0.00  0.00    -0.168 NA
ATOM     26  C18 UNL     1       6.579  14.580 -26.223  0.00  0.00    +0.122 A 
ATOM     27  C19 UNL     1       7.894  17.585 -27.398  0.00  0.00    +0.154 C 
ENDBRANCH   5  18
BRANCH   3  28
ATOM     28  C20 UNL     1      -0.711  14.044 -23.698  0.00  0.00    +0.105 C 
ATOM     29  C21 UNL     1      -1.906  14.308 -24.642  0.00  0.00    +0.028 C 
ATOM     30  C22 UNL     1      -1.471  13.123 -25.450  0.00  0.00    +0.040 C 
ATOM     31  C23 UNL     1      -0.336  12.798 -24.529  0.00  0.00    +0.028 C 
ATOM     32  C24 UNL     1      -1.154  13.329 -26.896  0.00  0.00    +0.095 C 
ATOM     33  N7  UNL     1      -2.117  12.256 -27.157  0.00  0.00    -0.276 N 
ATOM     34  C25 UNL     1      -2.473  12.058 -25.752  0.00  0.00    +0.095 C 
ATOM     35  C26 UNL     1      -2.078  11.279 -28.114  0.00  0.00    +0.249 C 
ATOM     36  O1  UNL     1      -2.653  10.201 -28.014  0.00  0.00    -0.270 OA
BRANCH  35  37
ATOM     37  C27 UNL     1      -1.277  11.666 -29.298  0.00  0.00    +0.058 C 
ATOM     38  C28 UNL     1      -1.798  11.442 -30.507  0.00  0.00    +0.005 C 
ENDBRANCH  35  37
ENDBRANCH   3  28
TORSDOF 4
ENDMDL
