MODEL 1
REMARK VINA RESULT:    -8.772      0.000      0.000
REMARK INTER + INTRA:         -13.032
REMARK INTER:                 -11.849
REMARK INTRA:                  -1.182
REMARK UNBOUND:                -1.182
REMARK  Name = /tmp/tmputgil4d5/5V90_candidate_0078.pdb
REMARK  6 active torsions:
REMARK  status: ('A' for Active; 'I' for Inactive)
REMARK    1  A    between atoms: C2_3  and  C3_5
REMARK    2  A    between atoms: C6_9  and  O2_11
REMARK    3  A    between atoms: O2_11  and  C8_12
REMARK    4  A    between atoms: C11_15  and  N3_18
REMARK    5  A    between atoms: N4_21  and  C15_22
REMARK    6  A    between atoms: C17_24  and  C21_29
REMARK                            x       y       z     vdW  Elec       q    Type
REMARK                         _______ _______ _______ _____ _____    ______ ____
ROOT
ATOM      1  C8  UNL     1     -20.724  13.485 -18.806  0.00  0.00    +0.148 A 
ATOM      2  C9  UNL     1     -21.732  14.067 -18.042  0.00  0.00    +0.068 A 
ATOM      3  C10 UNL     1     -21.559  15.357 -17.547  0.00  0.00    +0.158 A 
ATOM      4  C11 UNL     1     -20.402  16.084 -17.836  0.00  0.00    +0.103 A 
ATOM      5  C12 UNL     1     -19.395  15.487 -18.595  0.00  0.00    +0.022 A 
ATOM      6  C13 UNL     1     -19.562  14.199 -19.101  0.00  0.00    +0.039 A 
ATOM      7  F4  UNL     1     -22.491  15.842 -16.716  0.00  0.00    -0.203 F 
ENDROOT
BRANCH   4   8
ATOM      8  N3  UNL     1     -20.144  17.377 -17.362  0.00  0.00    -0.158 NA
ATOM      9  C14 UNL     1     -20.853  18.529 -17.691  0.00  0.00    +0.348 C 
ATOM     10  O3  UNL     1     -21.615  18.630 -18.648  0.00  0.00    -0.248 OA
ATOM     11  N4  UNL     1     -20.526  19.565 -16.818  0.00  0.00    -0.161 NA
BRANCH  11  12
ATOM     12  C15 UNL     1     -21.033  20.869 -16.844  0.00  0.00    +0.075 A 
ATOM     13  C16 UNL     1     -21.968  21.210 -15.868  0.00  0.00    +0.021 A 
ATOM     14  C17 UNL     1     -22.532  22.491 -15.815  0.00  0.00    +0.083 A 
ATOM     15  C18 UNL     1     -22.138  23.430 -16.770  0.00  0.00    +0.062 A 
ATOM     16  C19 UNL     1     -21.203  23.094 -17.750  0.00  0.00    +0.013 A 
ATOM     17  C20 UNL     1     -20.652  21.816 -17.788  0.00  0.00    +0.018 A 
ATOM     18 CL1  UNL     1     -22.763  25.033 -16.802  0.00  0.00    -0.082 Cl
BRANCH  14  19
ATOM     19  C21 UNL     1     -23.530  22.798 -14.742  0.00  0.00    +0.419 C 
ATOM     20  F1  UNL     1     -23.105  23.766 -13.879  0.00  0.00    -0.166 F 
ATOM     21  F2  UNL     1     -23.819  21.721 -13.963  0.00  0.00    -0.166 F 
ATOM     22  F3  UNL     1     -24.715  23.249 -15.235  0.00  0.00    -0.166 F 
ENDBRANCH  14  19
ENDBRANCH  11  12
ENDBRANCH   4   8
BRANCH   1  23
ATOM     23  O2  UNL     1     -20.977  12.242 -19.338  0.00  0.00    -0.453 OA
BRANCH  23  28
ATOM     24  C3  UNL     1     -20.322   9.809 -16.678  0.00  0.00    +0.139 A 
ATOM     25  N2  UNL     1     -21.469   9.079 -16.676  0.00  0.00    -0.239 NA
ATOM     26  C4  UNL     1     -22.410   9.434 -17.576  0.00  0.00    +0.102 A 
ATOM     27  C5  UNL     1     -22.267  10.472 -18.482  0.00  0.00    +0.058 A 
ATOM     28  C6  UNL     1     -21.070  11.179 -18.469  0.00  0.00    +0.149 A 
ATOM     29  C7  UNL     1     -20.082  10.866 -17.541  0.00  0.00    +0.061 A 
BRANCH  24  32
ATOM     30  C1  UNL     1     -18.598   7.977 -13.881  0.00  0.00    +0.139 C 
ATOM     31  N1  UNL     1     -19.553   8.405 -14.864  0.00  0.00    -0.198 NA
ATOM     32  C2  UNL     1     -19.254   9.457 -15.702  0.00  0.00    +0.283 C 
ATOM     33  O1  UNL     1     -18.194  10.078 -15.673  0.00  0.00    -0.267 OA
ENDBRANCH  24  32
ENDBRANCH  23  28
ENDBRANCH   1  23
TORSDOF 6
ENDMDL
