MODEL 1
REMARK VINA RESULT:    -7.513      0.000      0.000
REMARK INTER + INTRA:         -13.813
REMARK INTER:                 -11.466
REMARK INTRA:                  -2.347
REMARK UNBOUND:                -2.347
REMARK  Name = /tmp/tmpmefzz6kb/5V90_candidate_0034.pdb
REMARK  9 active torsions:
REMARK  status: ('A' for Active; 'I' for Inactive)
REMARK    1  A    between atoms: C7_7  and  O14_67
REMARK    2  A    between atoms: C18_19  and  O13_62
REMARK    3  A    between atoms: C25_27  and  C35_44
REMARK    4  A    between atoms: C35_44  and  C37_46
REMARK    5  A    between atoms: C37_46  and  C38_47
REMARK    6  A    between atoms: C41_50  and  O10_55
REMARK    7  A    between atoms: C42_51  and  O9_53
REMARK    8  A    between atoms: O10_55  and  C45_56
REMARK    9  A    between atoms: C45_56  and  C46_57
REMARK                            x       y       z     vdW  Elec       q    Type
REMARK                         _______ _______ _______ _____ _____    ______ ____
ROOT
ATOM      1  C1  UNL     1      -8.482  -9.334 -13.461  0.00  0.00    +0.006 C 
ATOM      2  C2  UNL     1      -7.399  -8.502 -14.096  0.00  0.00    +0.062 C 
ATOM      3  C3  UNL     1      -6.483  -7.913 -13.042  0.00  0.00    +0.008 C 
ATOM      4  C4  UNL     1      -6.954  -6.567 -12.530  0.00  0.00    +0.030 C 
ATOM      5  C5  UNL     1      -7.823  -5.833 -13.534  0.00  0.00    +0.121 C 
ATOM      6  C6  UNL     1      -7.684  -4.343 -13.363  0.00  0.00    +0.063 C 
ATOM      7  C7  UNL     1      -8.699  -3.729 -12.432  0.00  0.00    +0.136 C 
ATOM      8  C8  UNL     1      -9.853  -3.035 -13.068  0.00  0.00    -0.017 C 
ATOM      9  C9  UNL     1     -10.038  -1.730 -12.838  0.00  0.00    -0.006 C 
ATOM     10  C10 UNL     1     -11.098  -0.903 -13.333  0.00  0.00    -0.001 C 
ATOM     11  C11 UNL     1     -11.254  -0.562 -14.613  0.00  0.00    -0.000 C 
ATOM     12  C12 UNL     1     -12.384   0.211 -15.034  0.00  0.00    -0.005 C 
ATOM     13  C13 UNL     1     -12.614   0.498 -16.314  0.00  0.00    -0.026 C 
ATOM     14  C14 UNL     1     -13.820   1.164 -16.866  0.00  0.00    +0.022 C 
ATOM     15  C15 UNL     1     -13.438   2.212 -17.882  0.00  0.00    +0.012 C 
ATOM     16  C16 UNL     1     -14.572   2.452 -18.850  0.00  0.00    +0.061 C 
ATOM     17  C17 UNL     1     -14.494   1.479 -20.002  0.00  0.00    +0.180 C 
ATOM     18  O1  UNL     1     -13.500   1.402 -20.726  0.00  0.00    -0.293 OA
ATOM     19  C18 UNL     1     -15.724   0.636 -20.262  0.00  0.00    +0.206 C 
ATOM     20  C19 UNL     1     -15.318  -0.822 -20.412  0.00  0.00    +0.204 C 
ATOM     21  C20 UNL     1     -15.043  -1.588 -19.154  0.00  0.00    -0.015 C 
ATOM     22  C21 UNL     1     -13.784  -1.922 -18.855  0.00  0.00    -0.025 C 
ATOM     23  C22 UNL     1     -13.196  -2.698 -17.731  0.00  0.00    +0.079 C 
ATOM     24  C23 UNL     1     -12.903  -4.107 -18.195  0.00  0.00    +0.158 C 
ATOM     25  O2  UNL     1     -13.693  -5.036 -18.037  0.00  0.00    -0.296 OA
ATOM     26  C24 UNL     1     -11.571  -4.290 -18.870  0.00  0.00    +0.108 C 
ATOM     27  C25 UNL     1     -11.668  -5.241 -20.042  0.00  0.00    +0.176 C 
ATOM     28  O3  UNL     1     -10.344  -5.726 -20.286  0.00  0.00    -0.451 OA
ATOM     29  C26 UNL     1     -10.173  -7.000 -19.835  0.00  0.00    +0.335 C 
ATOM     30  O4  UNL     1     -11.052  -7.710 -19.368  0.00  0.00    -0.248 OA
ATOM     31  C27 UNL     1      -8.715  -7.391 -19.998  0.00  0.00    +0.175 C 
ATOM     32  C28 UNL     1      -8.518  -8.175 -21.279  0.00  0.00    +0.031 C 
ATOM     33  C29 UNL     1      -8.770  -9.665 -21.182  0.00  0.00    +0.004 C 
ATOM     34  C30 UNL     1      -8.978 -10.165 -19.771  0.00  0.00    +0.022 C 
ATOM     35  C31 UNL     1      -8.050  -9.485 -18.791  0.00  0.00    +0.094 C 
ATOM     36  N1  UNL     1      -8.171  -8.045 -18.823  0.00  0.00    -0.265 N 
ATOM     37  C32 UNL     1      -7.856  -7.242 -17.735  0.00  0.00    +0.289 C 
ATOM     38  O5  UNL     1      -8.030  -6.029 -17.725  0.00  0.00    -0.267 OA
ATOM     39  C33 UNL     1      -7.282  -7.940 -16.501  0.00  0.00    +0.279 C 
ATOM     40  O6  UNL     1      -6.416  -8.802 -16.646  0.00  0.00    -0.281 OA
ATOM     41  C34 UNL     1      -7.867  -7.500 -15.161  0.00  0.00    +0.279 C 
ATOM     42  O7  UNL     1      -7.418  -6.184 -14.848  0.00  0.00    -0.329 OA
ATOM     43  O8  UNL     1      -9.284  -7.546 -15.289  0.00  0.00    -0.187 OA
ATOM     44  C47 UNL     1     -13.998  -2.714 -16.453  0.00  0.00    +0.012 C 
ATOM     45  C48 UNL     1     -16.214  -1.993 -18.329  0.00  0.00    +0.029 C 
ATOM     46  O12 UNL     1     -16.284  -1.512 -21.195  0.00  0.00    -0.216 OA
ATOM     47  C50 UNL     1     -14.502   3.859 -19.394  0.00  0.00    +0.008 C 
ATOM     48  C51 UNL     1     -14.748   1.735 -15.821  0.00  0.00    +0.005 C 
ATOM     49  C52 UNL     1     -10.745  -3.837 -13.953  0.00  0.00    +0.029 C 
ENDROOT
BRANCH  27  50
ATOM     50  C35 UNL     1     -12.150  -4.586 -21.322  0.00  0.00    +0.041 C 
ATOM     51  C36 UNL     1     -13.439  -5.172 -21.846  0.00  0.00    +0.004 C 
BRANCH  50  52
ATOM     52  C37 UNL     1     -11.090  -4.585 -22.393  0.00  0.00    +0.004 C 
BRANCH  52  53
ATOM     53  C38 UNL     1     -10.829  -3.177 -22.858  0.00  0.00    +0.003 C 
ATOM     54  C39 UNL     1     -11.104  -2.202 -21.733  0.00  0.00    +0.003 C 
ATOM     55  C40 UNL     1     -11.233  -0.763 -22.196  0.00  0.00    +0.032 C 
ATOM     56  C41 UNL     1     -10.713  -0.521 -23.605  0.00  0.00    +0.142 C 
ATOM     57  C42 UNL     1     -11.400  -1.463 -24.597  0.00  0.00    +0.142 C 
ATOM     58  C43 UNL     1     -11.677  -2.861 -24.069  0.00  0.00    +0.032 C 
BRANCH  57  59
ATOM     59  O9  UNL     1     -12.555  -0.885 -25.190  0.00  0.00    -0.351 OA
ATOM     60  C44 UNL     1     -12.208  -0.003 -26.254  0.00  0.00    +0.174 C 
ENDBRANCH  57  59
BRANCH  56  61
ATOM     61  O10 UNL     1      -9.304  -0.759 -23.573  0.00  0.00    -0.351 OA
BRANCH  61  62
ATOM     62  C45 UNL     1      -8.606   0.482 -23.611  0.00  0.00    +0.178 C 
BRANCH  62  63
ATOM     63  C46 UNL     1      -8.228   0.801 -25.042  0.00  0.00    +0.214 C 
ATOM     64  O11 UNL     1      -7.808   2.159 -25.108  0.00  0.00    -0.218 OA
ENDBRANCH  62  63
ENDBRANCH  61  62
ENDBRANCH  56  61
ENDBRANCH  52  53
ENDBRANCH  50  52
ENDBRANCH  27  50
BRANCH  19  65
ATOM     65  O13 UNL     1     -16.807   0.867 -19.383  0.00  0.00    -0.343 OA
ATOM     66  C49 UNL     1     -17.874   1.416 -20.144  0.00  0.00    +0.175 C 
ENDBRANCH  19  65
BRANCH   7  67
ATOM     67  O14 UNL     1      -8.995  -4.447 -11.249  0.00  0.00    -0.349 OA
ATOM     68  C53 UNL     1      -8.474  -3.829 -10.084  0.00  0.00    +0.174 C 
ENDBRANCH   7  67
TORSDOF 9
ENDMDL
