MODEL 1
REMARK VINA RESULT:    -7.817      0.000      0.000
REMARK INTER + INTRA:         -11.308
REMARK INTER:                 -10.558
REMARK INTRA:                  -0.750
REMARK UNBOUND:                -0.750
REMARK  Name = /tmp/tmpv44edh3v/5V90_candidate_0015.pdb
REMARK  6 active torsions:
REMARK  status: ('A' for Active; 'I' for Inactive)
REMARK    1  A    between atoms: C2_2  and  C5_5
REMARK    2  A    between atoms: C7_7  and  N1_13
REMARK    3  A    between atoms: N1_13  and  C11_14
REMARK    4  A    between atoms: C11_14  and  C12_15
REMARK    5  A    between atoms: N3_20  and  C17_23
REMARK    6  A    between atoms: C20_27  and  C21_29
REMARK                            x       y       z     vdW  Elec       q    Type
REMARK                         _______ _______ _______ _____ _____    ______ ____
ROOT
ATOM      1  C12 UNL     1     -20.376  17.127 -17.644  0.00  0.00    +0.248 C 
ATOM      2  O2  UNL     1     -19.730  18.004 -18.221  0.00  0.00    -0.273 OA
ATOM      3  N2  UNL     1     -20.325  15.799 -18.027  0.00  0.00    -0.275 N 
ATOM      4  C13 UNL     1     -19.619  15.491 -19.255  0.00  0.00    +0.111 C 
ATOM      5  C14 UNL     1     -19.289  14.006 -19.391  0.00  0.00    +0.094 C 
ATOM      6  N3  UNL     1     -20.473  13.160 -19.183  0.00  0.00    -0.268 NA
ATOM      7  C15 UNL     1     -20.889  13.393 -17.797  0.00  0.00    +0.094 C 
ATOM      8  C16 UNL     1     -21.321  14.842 -17.574  0.00  0.00    +0.111 C 
ENDROOT
BRANCH   6   9
ATOM      9  C17 UNL     1     -20.012  11.764 -19.251  0.00  0.00    +0.098 C 
ATOM     10  C18 UNL     1     -20.620  10.999 -18.058  0.00  0.00    +0.111 C 
ATOM     11  N4  UNL     1     -19.264  10.578 -17.752  0.00  0.00    -0.273 N 
ATOM     12  C19 UNL     1     -18.661  11.659 -18.519  0.00  0.00    +0.111 C 
ATOM     13  C20 UNL     1     -18.758  10.038 -16.604  0.00  0.00    +0.249 C 
ATOM     14  O3  UNL     1     -17.580  10.112 -16.276  0.00  0.00    -0.270 OA
BRANCH  13  15
ATOM     15  C21 UNL     1     -19.781   9.329 -15.802  0.00  0.00    +0.058 C 
ATOM     16  C22 UNL     1     -19.373   8.319 -15.028  0.00  0.00    +0.005 C 
ENDBRANCH  13  15
ENDBRANCH   6   9
BRANCH   1  17
ATOM     17  C11 UNL     1     -21.313  17.470 -16.498  0.00  0.00    +0.197 C 
BRANCH  17  18
ATOM     18  N1  UNL     1     -22.580  17.995 -17.000  0.00  0.00    -0.225 NA
BRANCH  18  21
ATOM     19  C5  UNL     1     -25.350  15.509 -16.441  0.00  0.00    -0.011 A 
ATOM     20  C6  UNL     1     -24.229  16.171 -16.974  0.00  0.00    +0.016 A 
ATOM     21  C7  UNL     1     -23.720  17.371 -16.465  0.00  0.00    +0.104 A 
ATOM     22  C8  UNL     1     -24.382  17.928 -15.371  0.00  0.00    +0.211 A 
ATOM     23  C9  UNL     1     -25.507  17.329 -14.818  0.00  0.00    +0.054 A 
ATOM     24  C10 UNL     1     -25.983  16.132 -15.350  0.00  0.00    +0.057 A 
ATOM     25 CL1  UNL     1     -27.384  15.450 -14.615  0.00  0.00    -0.082 Cl
ATOM     26  O1  UNL     1     -23.940  19.091 -14.808  0.00  0.00    -0.285 OA
BRANCH  19  28
ATOM     27  C1  UNL     1     -27.075  14.300 -17.863  0.00  0.00    +0.004 C 
ATOM     28  C2  UNL     1     -25.818  14.215 -17.062  0.00  0.00    +0.020 C 
ATOM     29  C3  UNL     1     -25.579  12.922 -16.323  0.00  0.00    +0.004 C 
ATOM     30  C4  UNL     1     -24.787  13.231 -17.552  0.00  0.00    +0.004 C 
ENDBRANCH  19  28
ENDBRANCH  18  21
ENDBRANCH  17  18
ENDBRANCH   1  17
TORSDOF 6
ENDMDL
