MODEL 1
REMARK VINA RESULT:    -8.249      0.000      0.000
REMARK INTER + INTRA:         -10.309
REMARK INTER:                  -9.696
REMARK INTRA:                  -0.613
REMARK UNBOUND:                -0.613
REMARK  Name = /tmp/tmp6nq_h8b0/5V90_candidate_0092.pdb
REMARK  3 active torsions:
REMARK  status: ('A' for Active; 'I' for Inactive)
REMARK    1  A    between atoms: N1_7  and  C9_10
REMARK    2  A    between atoms: C11_13  and  S1_17
REMARK    3  A    between atoms: S1_17  and  C13_18
REMARK                            x       y       z     vdW  Elec       q    Type
REMARK                         _______ _______ _______ _____ _____    ______ ____
ROOT
ATOM      1  C9  UNL     1     -21.934  15.904 -17.114  0.00  0.00    +0.153 A 
ATOM      2  C10 UNL     1     -22.748  14.898 -17.650  0.00  0.00    +0.134 A 
ATOM      3  N2  UNL     1     -22.288  13.812 -18.312  0.00  0.00    -0.231 NA
ATOM      4  C11 UNL     1     -20.937  13.723 -18.412  0.00  0.00    +0.146 A 
ATOM      5  C12 UNL     1     -20.087  14.708 -17.878  0.00  0.00    +0.195 A 
ATOM      6  N3  UNL     1     -20.589  15.797 -17.229  0.00  0.00    -0.209 NA
ATOM      7  N4  UNL     1     -18.686  14.591 -18.004  0.00  0.00    -0.105 NA
ENDROOT
BRANCH   1  14
ATOM      8  C1  UNL     1     -24.042  23.114 -14.768  0.00  0.00    +0.034 C 
ATOM      9  C2  UNL     1     -23.430  21.814 -15.222  0.00  0.00    +0.133 C 
ATOM     10  C3  UNL     1     -24.039  20.537 -14.659  0.00  0.00    +0.121 C 
ATOM     11  C4  UNL     1     -23.579  19.541 -15.711  0.00  0.00    +0.049 C 
ATOM     12  C5  UNL     1     -24.422  18.276 -15.772  0.00  0.00    +0.025 C 
ATOM     13  C6  UNL     1     -23.865  17.258 -16.748  0.00  0.00    +0.092 C 
ATOM     14  N1  UNL     1     -22.480  16.985 -16.410  0.00  0.00    -0.292 N 
ATOM     15  C7  UNL     1     -21.600  18.141 -16.421  0.00  0.00    +0.092 C 
ATOM     16  C8  UNL     1     -22.123  19.168 -15.435  0.00  0.00    +0.025 C 
ATOM     17  C18 UNL     1     -23.668  20.350 -16.994  0.00  0.00    +0.144 C 
ATOM     18  O1  UNL     1     -23.416  21.718 -16.647  0.00  0.00    -0.355 OA
ATOM     19  N7  UNL     1     -25.497  20.632 -14.605  0.00  0.00    -0.130 NA
ENDBRANCH   1  14
BRANCH   4  20
ATOM     20  S1  UNL     1     -20.297  12.294 -19.285  0.00  0.00    -0.064 S 
BRANCH  20  21
ATOM     21  C13 UNL     1     -20.797  10.962 -18.200  0.00  0.00    +0.046 A 
ATOM     22  C14 UNL     1     -20.053  10.499 -17.105  0.00  0.00    +0.098 A 
ATOM     23  C15 UNL     1     -20.576   9.447 -16.340  0.00  0.00    +0.181 A 
ATOM     24  N5  UNL     1     -21.768   8.863 -16.630  0.00  0.00    -0.225 NA
ATOM     25  C16 UNL     1     -22.454   9.330 -17.693  0.00  0.00    +0.101 A 
ATOM     26  C17 UNL     1     -22.015  10.359 -18.501  0.00  0.00    +0.028 A 
ATOM     27  N6  UNL     1     -19.853   8.959 -15.228  0.00  0.00    -0.106 NA
ATOM     28 CL1  UNL     1     -18.512  11.193 -16.705  0.00  0.00    -0.079 Cl
ENDBRANCH  20  21
ENDBRANCH   4  20
TORSDOF 3
ENDMDL
