MODEL 1
REMARK VINA RESULT:    -8.170      0.000      0.000
REMARK INTER + INTRA:         -12.069
REMARK INTER:                 -11.035
REMARK INTRA:                  -1.034
REMARK UNBOUND:                -1.034
REMARK  Name = /tmp/tmptklm6poq/5V90_candidate_0045.pdb
REMARK  6 active torsions:
REMARK  status: ('A' for Active; 'I' for Inactive)
REMARK    1  A    between atoms: C3_3  and  C15_20
REMARK    2  A    between atoms: C9_11  and  O3_13
REMARK    3  A    between atoms: O3_13  and  C11_14
REMARK    4  A    between atoms: C15_20  and  C16_21
REMARK    5  A    between atoms: N4_27  and  S1_28
REMARK    6  A    between atoms: S1_28  and  N5_31
REMARK                            x       y       z     vdW  Elec       q    Type
REMARK                         _______ _______ _______ _____ _____    ______ ____
ROOT
ATOM      1  C1  UNL     1     -19.490  18.600 -18.128  0.00  0.00    +0.031 C 
ATOM      2  C2  UNL     1     -20.527  17.660 -17.596  0.00  0.00    -0.016 A 
ATOM      3  C3  UNL     1     -21.545  18.058 -16.815  0.00  0.00    +0.054 A 
ATOM      4  C4  UNL     1     -22.554  17.102 -16.310  0.00  0.00    +0.342 A 
ATOM      5  O1  UNL     1     -23.458  17.444 -15.551  0.00  0.00    -0.245 OA
ATOM      6  O2  UNL     1     -22.428  15.774 -16.707  0.00  0.00    -0.421 OA
ATOM      7  C5  UNL     1     -21.379  15.360 -17.542  0.00  0.00    +0.151 A 
ATOM      8  C6  UNL     1     -20.425  16.262 -17.998  0.00  0.00    +0.031 A 
ATOM      9  C7  UNL     1     -19.419  15.791 -18.846  0.00  0.00    +0.006 A 
ATOM     10  C8  UNL     1     -19.374  14.450 -19.225  0.00  0.00    +0.038 A 
ATOM     11  C9  UNL     1     -20.320  13.561 -18.719  0.00  0.00    +0.152 A 
ATOM     12  C10 UNL     1     -21.342  14.014 -17.890  0.00  0.00    +0.075 A 
ENDROOT
BRANCH  11  13
ATOM     13  O3  UNL     1     -20.279  12.256 -19.145  0.00  0.00    -0.422 OA
BRANCH  13  14
ATOM     14  C11 UNL     1     -19.944  11.372 -18.137  0.00  0.00    +0.325 A 
ATOM     15  N1  UNL     1     -18.702  11.458 -17.638  0.00  0.00    -0.192 NA
ATOM     16  C12 UNL     1     -18.417  10.577 -16.662  0.00  0.00    +0.105 A 
ATOM     17  C13 UNL     1     -19.302   9.661 -16.146  0.00  0.00    +0.042 A 
ATOM     18  C14 UNL     1     -20.553   9.715 -16.708  0.00  0.00    +0.105 A 
ATOM     19  N2  UNL     1     -20.911  10.554 -17.695  0.00  0.00    -0.192 NA
ENDBRANCH  13  14
ENDBRANCH  11  13
BRANCH   3  20
ATOM     20  C15 UNL     1     -21.750  19.461 -16.332  0.00  0.00    +0.061 C 
BRANCH  20  21
ATOM     21  C16 UNL     1     -22.444  20.355 -17.300  0.00  0.00    +0.014 A 
ATOM     22  C17 UNL     1     -21.710  21.373 -17.900  0.00  0.00    +0.171 A 
ATOM     23  C18 UNL     1     -22.287  22.091 -18.943  0.00  0.00    +0.200 A 
ATOM     24  N3  UNL     1     -23.616  21.989 -19.266  0.00  0.00    -0.224 NA
ATOM     25  C19 UNL     1     -24.299  21.016 -18.636  0.00  0.00    +0.100 A 
ATOM     26  C20 UNL     1     -23.767  20.168 -17.677  0.00  0.00    +0.019 A 
ATOM     27  N4  UNL     1     -21.550  23.032 -19.720  0.00  0.00    -0.063 NA
ATOM     28  F1  UNL     1     -20.490  21.635 -17.411  0.00  0.00    -0.201 F 
BRANCH  27  29
ATOM     29  S1  UNL     1     -20.133  22.357 -20.403  0.00  0.00    +0.148 S 
ATOM     30  O4  UNL     1     -18.994  22.820 -19.650  0.00  0.00    -0.135 OA
ATOM     31  O5  UNL     1     -20.348  20.944 -20.634  0.00  0.00    -0.135 OA
BRANCH  29  32
ATOM     32  N5  UNL     1     -20.129  23.124 -21.912  0.00  0.00    -0.061 NA
ATOM     33  C21 UNL     1     -18.818  23.683 -22.226  0.00  0.00    +0.138 C 
ENDBRANCH  29  32
ENDBRANCH  27  29
ENDBRANCH  20  21
ENDBRANCH   3  20
TORSDOF 6
ENDMDL
