MODEL 1
REMARK VINA RESULT:    -6.727      0.000      0.000
REMARK INTER + INTRA:         -11.340
REMARK INTER:                 -10.266
REMARK INTRA:                  -1.074
REMARK UNBOUND:                -1.074
REMARK  Name = /tmp/tmp457etij5/5V90_candidate_0086.pdb
REMARK  9 active torsions:
REMARK  status: ('A' for Active; 'I' for Inactive)
REMARK    1  A    between atoms: C2_2  and  N1_3
REMARK    2  A    between atoms: N1_3  and  C3_4
REMARK    3  A    between atoms: N1_3  and  C17_21
REMARK    4  A    between atoms: C3_4  and  C4_5
REMARK    5  A    between atoms: C4_5  and  C5_6
REMARK    6  A    between atoms: C5_6  and  C6_7
REMARK    7  A    between atoms: C6_7  and  N2_9
REMARK    8  A    between atoms: N2_9  and  C8_10
REMARK    9  A    between atoms: C17_21  and  C18_22
REMARK                            x       y       z     vdW  Elec       q    Type
REMARK                         _______ _______ _______ _____ _____    ______ ____
ROOT
ATOM      1  N2  UNL     1     -19.599  12.598 -19.109  0.00  0.00    -0.239 NA
ENDROOT
BRANCH   1   2
ATOM      2  C8  UNL     1     -20.446  11.607 -18.576  0.00  0.00    +0.068 A 
ATOM      3  C9  UNL     1     -19.966  10.747 -17.568  0.00  0.00    +0.033 A 
ATOM      4  C10 UNL     1     -18.657  10.846 -17.063  0.00  0.00    +0.004 A 
ATOM      5  C11 UNL     1     -18.204   9.996 -16.063  0.00  0.00    +0.012 A 
ATOM      6  C12 UNL     1     -19.066   9.033 -15.564  0.00  0.00    +0.059 A 
ATOM      7  C13 UNL     1     -20.363   8.920 -16.055  0.00  0.00    +0.031 A 
ATOM      8  C14 UNL     1     -20.833   9.762 -17.051  0.00  0.00    +0.083 A 
ATOM      9  N3  UNL     1     -22.093   9.613 -17.487  0.00  0.00    -0.244 NA
ATOM     10  C15 UNL     1     -22.528  10.449 -18.452  0.00  0.00    +0.100 A 
ATOM     11  C16 UNL     1     -21.758  11.445 -19.019  0.00  0.00    +0.037 A 
ATOM     12 CL1  UNL     1     -18.531   7.970 -14.329  0.00  0.00    -0.082 Cl
ENDBRANCH   1   2
BRANCH   1  13
ATOM     13  C6  UNL     1     -20.123  13.953 -19.092  0.00  0.00    +0.093 C 
ATOM     14  C7  UNL     1     -19.078  14.870 -19.684  0.00  0.00    +0.023 C 
BRANCH  13  15
ATOM     15  C5  UNL     1     -20.365  14.350 -17.653  0.00  0.00    +0.023 C 
BRANCH  15  16
ATOM     16  C4  UNL     1     -21.761  14.895 -17.448  0.00  0.00    +0.019 C 
BRANCH  16  17
ATOM     17  C3  UNL     1     -21.850  16.400 -17.606  0.00  0.00    +0.072 C 
BRANCH  17  18
ATOM     18  N1  UNL     1     -20.714  17.189 -17.174  0.00  0.00    -0.270 NA
BRANCH  18  20
ATOM     19  C1  UNL     1     -19.405  19.154 -17.675  0.00  0.00    +0.019 C 
ATOM     20  C2  UNL     1     -20.223  18.023 -18.253  0.00  0.00    +0.072 C 
ENDBRANCH  18  20
BRANCH  18  21
ATOM     21  C17 UNL     1     -20.974  17.930 -15.949  0.00  0.00    +0.108 C 
BRANCH  21  22
ATOM     22  C18 UNL     1     -22.414  18.342 -15.700  0.00  0.00    +0.199 C 
ATOM     23  O1  UNL     1     -22.503  19.756 -15.772  0.00  0.00    -0.219 OA
ENDBRANCH  21  22
ENDBRANCH  18  21
ENDBRANCH  17  18
ENDBRANCH  16  17
ENDBRANCH  15  16
ENDBRANCH  13  15
ENDBRANCH   1  13
TORSDOF 9
ENDMDL
