MODEL 1
REMARK VINA RESULT:    -7.772      0.000      0.000
REMARK INTER + INTRA:         -11.099
REMARK INTER:                  -9.590
REMARK INTRA:                  -1.509
REMARK UNBOUND:                -1.509
REMARK  Name = /tmp/tmp2fx070qc/5V90_candidate_0004.pdb
REMARK  4 active torsions:
REMARK  status: ('A' for Active; 'I' for Inactive)
REMARK    1  A    between atoms: N4_12  and  C19_28
REMARK    2  A    between atoms: C9_15  and  C13_20
REMARK    3  A    between atoms: C23_33  and  C24_34
REMARK    4  A    between atoms: C28_38  and  C29_40
REMARK                            x       y       z     vdW  Elec       q    Type
REMARK                         _______ _______ _______ _____ _____    ______ ____
ROOT
ATOM      1  C1  UNL     1      -8.103  28.535 -23.329  0.00  0.00    +0.023 C 
ATOM      2  C2  UNL     1      -7.197  28.728 -22.134  0.00  0.00    +0.094 C 
ATOM      3  C3  UNL     1      -6.056  29.675 -22.485  0.00  0.00    +0.113 C 
ATOM      4  N1  UNL     1      -6.430  31.078 -22.473  0.00  0.00    -0.273 N 
ATOM      5  C4  UNL     1      -7.469  31.494 -21.547  0.00  0.00    +0.115 C 
ATOM      6  C5  UNL     1      -7.692  30.471 -20.440  0.00  0.00    +0.114 C 
ATOM      7  N2  UNL     1      -8.005  29.145 -20.973  0.00  0.00    -0.291 N 
ATOM      8  C6  UNL     1      -8.516  28.139 -20.156  0.00  0.00    +0.139 A 
ATOM      9  N3  UNL     1      -8.136  26.916 -20.368  0.00  0.00    -0.177 NA
ATOM     10  C7  UNL     1      -8.562  25.857 -19.605  0.00  0.00    +0.356 A 
ATOM     11  O1  UNL     1      -8.123  24.734 -19.844  0.00  0.00    -0.244 OA
ATOM     12  N4  UNL     1      -9.453  26.095 -18.563  0.00  0.00    -0.242 N 
ATOM     13  C8  UNL     1      -9.949  27.392 -18.311  0.00  0.00    +0.154 A 
ATOM     14  N5  UNL     1     -10.889  27.587 -17.348  0.00  0.00    -0.225 NA
ATOM     15  C9  UNL     1     -11.383  28.836 -17.140  0.00  0.00    +0.115 A 
ATOM     16  C10 UNL     1     -10.963  29.915 -17.906  0.00  0.00    +0.158 A 
ATOM     17  C11 UNL     1     -10.014  29.711 -18.894  0.00  0.00    +0.037 A 
ATOM     18  C12 UNL     1      -9.490  28.439 -19.089  0.00  0.00    +0.069 A 
ATOM     19  F1  UNL     1     -11.466  31.143 -17.721  0.00  0.00    -0.203 F 
ATOM     20  C28 UNL     1      -5.808  31.922 -23.365  0.00  0.00    +0.249 C 
ATOM     21  O3  UNL     1      -4.947  31.547 -24.154  0.00  0.00    -0.270 OA
ENDROOT
BRANCH  15  22
ATOM     22  C13 UNL     1     -12.358  28.955 -16.056  0.00  0.00    +0.086 A 
ATOM     23  C14 UNL     1     -13.731  29.100 -16.295  0.00  0.00    +0.199 A 
ATOM     24  C15 UNL     1     -14.656  29.192 -15.255  0.00  0.00    +0.042 A 
ATOM     25  C16 UNL     1     -14.219  29.142 -13.936  0.00  0.00    +0.006 A 
ATOM     26  C17 UNL     1     -12.863  28.999 -13.664  0.00  0.00    +0.030 A 
ATOM     27  C18 UNL     1     -11.952  28.906 -14.716  0.00  0.00    +0.145 A 
ATOM     28  F2  UNL     1     -10.652  28.744 -14.417  0.00  0.00    -0.204 F 
ATOM     29  O2  UNL     1     -14.216  29.180 -17.570  0.00  0.00    -0.286 OA
ENDBRANCH  15  22
BRANCH  12  30
ATOM     30  C19 UNL     1      -9.955  25.022 -17.764  0.00  0.00    +0.079 A 
ATOM     31  C20 UNL     1      -9.417  24.759 -16.492  0.00  0.00    -0.003 A 
ATOM     32  C21 UNL     1      -9.930  23.717 -15.724  0.00  0.00    +0.018 A 
ATOM     33  C22 UNL     1     -10.971  22.967 -16.240  0.00  0.00    +0.098 A 
ATOM     34  N6  UNL     1     -11.527  23.185 -17.450  0.00  0.00    -0.247 NA
ATOM     35  C23 UNL     1     -11.021  24.205 -18.196  0.00  0.00    +0.074 A 
ATOM     36  C27 UNL     1      -8.262  25.521 -15.928  0.00  0.00    +0.033 C 
BRANCH  35  37
ATOM     37  C24 UNL     1     -11.723  24.487 -19.493  0.00  0.00    +0.042 C 
ATOM     38  C25 UNL     1     -13.221  24.383 -19.320  0.00  0.00    +0.006 C 
ATOM     39  C26 UNL     1     -11.265  23.546 -20.586  0.00  0.00    +0.006 C 
ENDBRANCH  35  37
ENDBRANCH  12  30
BRANCH  20  40
ATOM     40  C29 UNL     1      -6.272  33.328 -23.294  0.00  0.00    +0.058 C 
ATOM     41  C30 UNL     1      -5.366  34.273 -23.032  0.00  0.00    +0.005 C 
ENDBRANCH  20  40
TORSDOF 4
ENDMDL
