MODEL 1
REMARK VINA RESULT:    -7.762      0.000      0.000
REMARK INTER + INTRA:         -11.979
REMARK INTER:                 -10.485
REMARK INTRA:                  -1.495
REMARK UNBOUND:                -1.495
REMARK  Name = /tmp/tmpgybban58/5V90_candidate_0013.pdb
REMARK  6 active torsions:
REMARK  status: ('A' for Active; 'I' for Inactive)
REMARK    1  A    between atoms: C2_2  and  C3_3
REMARK    2  A    between atoms: C2_2  and  O1_9
REMARK    3  A    between atoms: O1_9  and  C8_10
REMARK    4  A    between atoms: C9_12  and  C12_16
REMARK    5  A    between atoms: C13_19  and  C14_21
REMARK    6  A    between atoms: C20_27  and  C22_31
REMARK                            x       y       z     vdW  Elec       q    Type
REMARK                         _______ _______ _______ _____ _____    ______ ____
ROOT
ATOM      1  C12 UNL     1     -23.170  14.383 -18.044  0.00  0.00    +0.239 A 
ATOM      2  N4  UNL     1     -23.996  15.207 -17.366  0.00  0.00    -0.053 NA
ATOM      3  O2  UNL     1     -25.251  14.623 -17.509  0.00  0.00    -0.337 OA
ATOM      4  C13 UNL     1     -25.081  13.504 -18.274  0.00  0.00    +0.240 A 
ATOM      5  N5  UNL     1     -23.829  13.309 -18.624  0.00  0.00    -0.188 NA
ENDROOT
BRANCH   4   6
ATOM      6  C14 UNL     1     -26.288  12.666 -18.565  0.00  0.00    +0.091 C 
ATOM      7  C15 UNL     1     -27.313  13.464 -19.389  0.00  0.00    +0.013 C 
ATOM      8  C16 UNL     1     -26.991  13.520 -20.876  0.00  0.00    +0.006 C 
ATOM      9  C17 UNL     1     -26.989  12.132 -21.494  0.00  0.00    +0.033 C 
ATOM     10  C18 UNL     1     -26.246  11.182 -20.624  0.00  0.00    +0.006 A 
ATOM     11  C19 UNL     1     -25.919  11.379 -19.294  0.00  0.00    -0.001 A 
ATOM     12  C20 UNL     1     -25.187  10.239 -18.788  0.00  0.00    +0.088 A 
ATOM     13  C21 UNL     1     -25.003   9.255 -19.744  0.00  0.00    +0.127 A 
ATOM     14  S1  UNL     1     -25.716   9.698 -21.238  0.00  0.00    -0.073 S 
ATOM     15  N6  UNL     1     -24.358   8.066 -19.605  0.00  0.00    -0.120 NA
ATOM     16  C23 UNL     1     -26.977  12.348 -17.247  0.00  0.00    +0.014 C 
BRANCH  12  17
ATOM     17  C22 UNL     1     -24.687  10.090 -17.447  0.00  0.00    +0.102 C 
ATOM     18  N7  UNL     1     -24.302   9.938 -16.362  0.00  0.00    -0.191 NA
ENDBRANCH  12  17
ENDBRANCH   4   6
BRANCH   1  21
ATOM     19  C8  UNL     1     -19.608  13.802 -17.752  0.00  0.00    +0.228 A 
ATOM     20  N2  UNL     1     -20.935  13.595 -17.672  0.00  0.00    -0.189 NA
ATOM     21  C9  UNL     1     -21.718  14.571 -18.169  0.00  0.00    +0.205 A 
ATOM     22  N3  UNL     1     -21.263  15.694 -18.757  0.00  0.00    -0.222 NA
ATOM     23  C10 UNL     1     -19.922  15.818 -18.819  0.00  0.00    +0.105 A 
ATOM     24  C11 UNL     1     -19.024  14.903 -18.328  0.00  0.00    +0.078 A 
BRANCH  19  25
ATOM     25  O1  UNL     1     -18.743  12.846 -17.252  0.00  0.00    -0.463 OA
BRANCH  25  27
ATOM     26  C1  UNL     1     -18.664  11.019 -18.759  0.00  0.00    +0.049 C 
ATOM     27  C2  UNL     1     -19.280  11.539 -17.478  0.00  0.00    +0.182 C 
BRANCH  27  28
ATOM     28  C3  UNL     1     -18.948  10.624 -16.302  0.00  0.00    +0.098 C 
ATOM     29  C4  UNL     1     -17.884   9.599 -16.622  0.00  0.00    +0.021 C 
ATOM     30  C5  UNL     1     -18.024   8.579 -15.515  0.00  0.00    +0.019 C 
ATOM     31  C6  UNL     1     -19.406   8.801 -14.935  0.00  0.00    +0.072 C 
ATOM     32  N1  UNL     1     -20.049   9.862 -15.706  0.00  0.00    -0.270 NA
ATOM     33  C7  UNL     1     -20.833   9.206 -16.745  0.00  0.00    +0.090 C 
ENDBRANCH  27  28
ENDBRANCH  25  27
ENDBRANCH  19  25
ENDBRANCH   1  21
TORSDOF 6
ENDMDL
