MODEL 1
REMARK VINA RESULT:    -9.441      0.000      0.000
REMARK INTER + INTRA:         -13.859
REMARK INTER:                 -12.200
REMARK INTRA:                  -1.659
REMARK UNBOUND:                -1.659
REMARK  Name = /tmp/tmpr6tgu887/5V90_candidate_0001.pdb
REMARK  5 active torsions:
REMARK  status: ('A' for Active; 'I' for Inactive)
REMARK    1  A    between atoms: C2_2  and  C3_3
REMARK    2  A    between atoms: C11_11  and  C13_13
REMARK    3  A    between atoms: C18_19  and  O1_21
REMARK    4  A    between atoms: O1_21  and  C19_22
REMARK    5  A    between atoms: C19_22  and  C20_23
REMARK                            x       y       z     vdW  Elec       q    Type
REMARK                         _______ _______ _______ _____ _____    ______ ____
ROOT
ATOM      1  C13 UNL     1       2.471  16.878 -23.771  0.00  0.00    +0.113 A 
ATOM      2  C14 UNL     1       2.261  17.554 -22.582  0.00  0.00    +0.176 A 
ATOM      3  C15 UNL     1       2.505  18.916 -22.493  0.00  0.00    +0.122 A 
ATOM      4  C16 UNL     1       2.988  19.621 -23.612  0.00  0.00    +0.105 A 
ATOM      5  C17 UNL     1       3.199  21.013 -23.387  0.00  0.00    +0.142 A 
ATOM      6  N1  UNL     1       2.937  21.573 -22.187  0.00  0.00    -0.179 NA
ATOM      7  C18 UNL     1       2.494  20.789 -21.206  0.00  0.00    +0.321 A 
ATOM      8  N2  UNL     1       2.254  19.490 -21.314  0.00  0.00    -0.192 NA
ATOM      9  N4  UNL     1       3.758  21.896 -24.299  0.00  0.00    -0.288 N 
ATOM     10  C27 UNL     1       3.514  23.309 -23.971  0.00  0.00    +0.110 C 
ATOM     11  C28 UNL     1       4.347  24.268 -24.834  0.00  0.00    +0.093 C 
ATOM     12  C29 UNL     1       5.828  23.944 -24.701  0.00  0.00    +0.021 C 
ATOM     13  C30 UNL     1       6.089  22.894 -25.771  0.00  0.00    +0.021 C 
ATOM     14  C31 UNL     1       4.738  22.680 -26.443  0.00  0.00    +0.095 C 
ATOM     15  C32 UNL     1       3.903  21.604 -25.725  0.00  0.00    +0.134 C 
ATOM     16  C33 UNL     1       4.562  20.261 -25.908  0.00  0.00    +0.228 C 
ATOM     17  O2  UNL     1       3.515  19.317 -26.011  0.00  0.00    -0.458 OA
ATOM     18  C34 UNL     1       3.169  18.836 -24.786  0.00  0.00    +0.229 A 
ATOM     19  N5  UNL     1       2.917  17.510 -24.871  0.00  0.00    -0.209 NA
ATOM     20  N6  UNL     1       4.089  23.988 -26.256  0.00  0.00    -0.217 NA
ATOM     21  F2  UNL     1       1.807  16.881 -21.511  0.00  0.00    -0.201 F 
ENDROOT
BRANCH   1  30
ATOM     22  C3  UNL     1      -0.239  15.518 -24.547  0.00  0.00    +0.005 A 
ATOM     23  C4  UNL     1      -1.379  14.796 -24.932  0.00  0.00    +0.136 A 
ATOM     24  C5  UNL     1      -1.361  13.418 -25.053  0.00  0.00    +0.029 A 
ATOM     25  C6  UNL     1      -0.183  12.739 -24.786  0.00  0.00    +0.002 A 
ATOM     26  C7  UNL     1       0.970  13.424 -24.413  0.00  0.00    +0.003 A 
ATOM     27  C8  UNL     1       2.094  12.645 -24.170  0.00  0.00    +0.042 A 
ATOM     28  C9  UNL     1       3.280  13.246 -23.795  0.00  0.00    +0.196 A 
ATOM     29  C10 UNL     1       3.365  14.619 -23.666  0.00  0.00    +0.044 A 
ATOM     30  C11 UNL     1       2.249  15.438 -23.908  0.00  0.00    +0.023 A 
ATOM     31  C12 UNL     1       0.996  14.843 -24.287  0.00  0.00    -0.000 A 
ATOM     32  O3  UNL     1       4.377  12.479 -23.554  0.00  0.00    -0.287 OA
ATOM     33  F3  UNL     1      -2.523  15.450 -25.185  0.00  0.00    -0.205 F 
BRANCH  22  35
ATOM     34  C1  UNL     1      -1.133  17.375 -23.182  0.00  0.00    +0.005 C 
ATOM     35  C2  UNL     1      -0.394  17.005 -24.449  0.00  0.00    +0.029 C 
ENDBRANCH  22  35
ENDBRANCH   1  30
BRANCH   7  36
ATOM     36  O1  UNL     1       2.191  21.338 -19.982  0.00  0.00    -0.445 OA
BRANCH  36  37
ATOM     37  C19 UNL     1       1.006  22.106 -20.131  0.00  0.00    +0.223 C 
BRANCH  37  38
ATOM     38  C20 UNL     1       0.022  21.872 -18.988  0.00  0.00    +0.089 C 
ATOM     39  C21 UNL     1       0.522  20.834 -18.004  0.00  0.00    +0.020 C 
ATOM     40  C22 UNL     1       1.002  21.610 -16.798  0.00  0.00    +0.019 C 
ATOM     41  C23 UNL     1       0.595  23.051 -17.028  0.00  0.00    +0.072 C 
ATOM     42  N3  UNL     1      -0.252  23.096 -18.219  0.00  0.00    -0.269 NA
ATOM     43  C24 UNL     1      -1.648  22.990 -17.784  0.00  0.00    +0.108 C 
ATOM     44  C25 UNL     1      -2.351  22.344 -18.960  0.00  0.00    +0.178 C 
ATOM     45  C26 UNL     1      -1.309  21.434 -19.571  0.00  0.00    +0.055 C 
ATOM     46  F1  UNL     1      -3.383  21.583 -18.512  0.00  0.00    -0.236 F 
ENDBRANCH  37  38
ENDBRANCH  36  37
ENDBRANCH   7  36
TORSDOF 5
ENDMDL
