MODEL 1
REMARK VINA RESULT:    -7.277      0.000      0.000
REMARK INTER + INTRA:         -11.257
REMARK INTER:                  -9.405
REMARK INTRA:                  -1.853
REMARK UNBOUND:                -1.853
REMARK  Name = /tmp/tmpy99msuha/5V90_candidate_0031.pdb
REMARK  5 active torsions:
REMARK  status: ('A' for Active; 'I' for Inactive)
REMARK    1  A    between atoms: C6_8  and  C7_10
REMARK    2  A    between atoms: N4_17  and  C23_33
REMARK    3  A    between atoms: C13_20  and  C17_25
REMARK    4  A    between atoms: C24_34  and  C30_42
REMARK    5  A    between atoms: C26_38  and  C27_39
REMARK                            x       y       z     vdW  Elec       q    Type
REMARK                         _______ _______ _______ _____ _____    ______ ____
ROOT
ATOM      1  C1  UNL     1       6.303  24.585 -21.885  0.00  0.00    +0.023 C 
ATOM      2  C2  UNL     1       5.517  23.581 -22.701  0.00  0.00    +0.095 C 
ATOM      3  C3  UNL     1       6.157  22.210 -22.446  0.00  0.00    +0.112 C 
ATOM      4  N1  UNL     1       5.798  21.229 -23.474  0.00  0.00    -0.291 N 
ATOM      5  C4  UNL     1       6.265  21.750 -24.764  0.00  0.00    +0.094 C 
ATOM      6  C5  UNL     1       5.480  22.989 -25.158  0.00  0.00    +0.113 C 
ATOM      7  N2  UNL     1       5.406  24.001 -24.102  0.00  0.00    -0.274 N 
ATOM      8  C6  UNL     1       4.728  25.188 -24.357  0.00  0.00    +0.249 C 
ATOM      9  O1  UNL     1       4.332  25.944 -23.477  0.00  0.00    -0.270 OA
ATOM     10  C9  UNL     1       6.284  20.699 -25.843  0.00  0.00    +0.023 C 
ATOM     11  C10 UNL     1       4.552  20.605 -23.377  0.00  0.00    +0.139 A 
ATOM     12  N3  UNL     1       3.717  20.674 -24.367  0.00  0.00    -0.177 NA
ATOM     13  C11 UNL     1       2.474  20.094 -24.329  0.00  0.00    +0.356 A 
ATOM     14  O2  UNL     1       1.736  20.173 -25.309  0.00  0.00    -0.244 OA
ATOM     15  N4  UNL     1       2.084  19.416 -23.181  0.00  0.00    -0.241 N 
ATOM     16  C12 UNL     1       2.944  19.292 -22.074  0.00  0.00    +0.154 A 
ATOM     17  N5  UNL     1       2.524  18.643 -20.955  0.00  0.00    -0.225 NA
ATOM     18  C13 UNL     1       3.381  18.537 -19.902  0.00  0.00    +0.114 A 
ATOM     19  C14 UNL     1       4.665  19.066 -19.943  0.00  0.00    +0.158 A 
ATOM     20  C15 UNL     1       5.079  19.738 -21.081  0.00  0.00    +0.037 A 
ATOM     21  C16 UNL     1       4.199  19.867 -22.149  0.00  0.00    +0.069 A 
ATOM     22  F1  UNL     1       5.504  18.946 -18.905  0.00  0.00    -0.203 F 
ENDROOT
BRANCH  18  23
ATOM     23  C17 UNL     1       2.850  17.851 -18.724  0.00  0.00    +0.064 A 
ATOM     24  C18 UNL     1       2.245  18.548 -17.658  0.00  0.00    +0.093 A 
ATOM     25  C19 UNL     1       1.763  17.847 -16.545  0.00  0.00    +0.018 A 
ATOM     26  C20 UNL     1       1.866  16.460 -16.476  0.00  0.00    +0.004 A 
ATOM     27  C21 UNL     1       2.463  15.762 -17.517  0.00  0.00    +0.030 A 
ATOM     28  C22 UNL     1       2.945  16.455 -18.623  0.00  0.00    +0.143 A 
ATOM     29  F2  UNL     1       3.517  15.753 -19.616  0.00  0.00    -0.204 F 
ATOM     30  N6  UNL     1       2.070  19.948 -17.689  0.00  0.00    -0.128 NA
ENDBRANCH  18  23
BRANCH  15  31
ATOM     31  C23 UNL     1       0.785  18.839 -23.086  0.00  0.00    +0.097 A 
ATOM     32  C24 UNL     1      -0.293  19.540 -22.529  0.00  0.00    +0.078 A 
ATOM     33  N7  UNL     1      -1.525  18.981 -22.455  0.00  0.00    -0.227 NA
ATOM     34  C25 UNL     1      -1.661  17.731 -22.909  0.00  0.00    +0.198 A 
ATOM     35  N8  UNL     1      -0.688  16.981 -23.437  0.00  0.00    -0.227 NA
ATOM     36  C26 UNL     1       0.548  17.530 -23.523  0.00  0.00    +0.078 A 
BRANCH  36  37
ATOM     37  C27 UNL     1       1.638  16.721 -24.162  0.00  0.00    +0.042 C 
ATOM     38  C28 UNL     1       1.550  15.230 -24.290  0.00  0.00    +0.006 C 
ATOM     39  C29 UNL     1       2.531  15.842 -23.335  0.00  0.00    +0.006 C 
ENDBRANCH  36  37
BRANCH  32  40
ATOM     40  C30 UNL     1      -0.132  20.920 -21.964  0.00  0.00    +0.042 C 
ATOM     41  C31 UNL     1      -1.256  21.594 -21.230  0.00  0.00    +0.006 C 
ATOM     42  C32 UNL     1      -0.049  21.126 -20.478  0.00  0.00    +0.006 C 
ENDBRANCH  32  40
ENDBRANCH  15  31
BRANCH   8  43
ATOM     43  C7  UNL     1       4.521  25.477 -25.800  0.00  0.00    +0.058 C 
ATOM     44  C8  UNL     1       4.565  26.751 -26.195  0.00  0.00    +0.005 C 
ENDBRANCH   8  43
TORSDOF 5
ENDMDL
