MODEL 1
REMARK VINA RESULT:    -8.104      0.000      0.000
REMARK INTER + INTRA:         -12.297
REMARK INTER:                 -11.421
REMARK INTRA:                  -0.876
REMARK UNBOUND:                -0.876
REMARK  Name = /tmp/tmpoqno1hk1/5V90_candidate_0043.pdb
REMARK  7 active torsions:
REMARK  status: ('A' for Active; 'I' for Inactive)
REMARK    1  A    between atoms: N1_2  and  C3_4
REMARK    2  A    between atoms: C3_4  and  C4_5
REMARK    3  A    between atoms: C5_6  and  C6_7
REMARK    4  A    between atoms: N2_9  and  C7_10
REMARK    5  A    between atoms: C8_11  and  O2_29
REMARK    6  A    between atoms: N5_20  and  C15_21
REMARK    7  A    between atoms: O2_29  and  C21_30
REMARK                            x       y       z     vdW  Elec       q    Type
REMARK                         _______ _______ _______ _____ _____    ______ ____
ROOT
ATOM      1  C7  UNL     1     -22.506  16.079 -17.221  0.00  0.00    +0.108 A 
ATOM      2  C8  UNL     1     -21.147  16.395 -17.210  0.00  0.00    +0.155 A 
ATOM      3  C9  UNL     1     -20.220  15.427 -17.612  0.00  0.00    +0.057 A 
ATOM      4  C10 UNL     1     -20.598  14.163 -18.042  0.00  0.00    +0.089 A 
ATOM      5  C11 UNL     1     -21.962  13.864 -18.090  0.00  0.00    +0.053 A 
ATOM      6  C12 UNL     1     -22.904  14.829 -17.688  0.00  0.00    +0.024 A 
ATOM      7  C13 UNL     1     -22.302  12.585 -18.546  0.00  0.00    +0.155 A 
ATOM      8  N3  UNL     1     -21.359  11.696 -18.915  0.00  0.00    -0.207 NA
ATOM      9  C14 UNL     1     -20.083  12.088 -18.825  0.00  0.00    +0.200 A 
ATOM     10  N4  UNL     1     -19.661  13.287 -18.407  0.00  0.00    -0.224 NA
ATOM     11  N5  UNL     1     -23.685  12.253 -18.606  0.00  0.00    -0.194 NA
ENDROOT
BRANCH  11  12
ATOM     12  C15 UNL     1     -24.279  11.043 -19.022  0.00  0.00    +0.073 A 
ATOM     13  C16 UNL     1     -25.214  10.337 -18.261  0.00  0.00    +0.030 A 
ATOM     14  C17 UNL     1     -25.764   9.147 -18.728  0.00  0.00    +0.086 A 
ATOM     15  C18 UNL     1     -25.381   8.648 -19.969  0.00  0.00    +0.151 A 
ATOM     16  C19 UNL     1     -24.454   9.333 -20.744  0.00  0.00    +0.032 A 
ATOM     17  C20 UNL     1     -23.909  10.524 -20.268  0.00  0.00    +0.019 A 
ATOM     18  F1  UNL     1     -25.899   7.504 -20.437  0.00  0.00    -0.203 F 
ATOM     19 CL1  UNL     1     -26.908   8.320 -17.749  0.00  0.00    -0.080 Cl
ENDBRANCH  11  12
BRANCH   1  22
ATOM     20  C6  UNL     1     -24.365  16.759 -15.736  0.00  0.00    +0.269 C 
ATOM     21  O1  UNL     1     -24.540  15.723 -15.105  0.00  0.00    -0.268 OA
ATOM     22  N2  UNL     1     -23.528  16.948 -16.819  0.00  0.00    -0.172 NA
BRANCH  20  24
ATOM     23  C4  UNL     1     -24.470  18.977 -14.772  0.00  0.00    -0.004 C 
ATOM     24  C5  UNL     1     -25.095  18.017 -15.458  0.00  0.00    +0.057 C 
BRANCH  23  25
ATOM     25  C3  UNL     1     -25.104  20.282 -14.469  0.00  0.00    +0.099 C 
BRANCH  25  27
ATOM     26  C1  UNL     1     -25.959  20.596 -12.322  0.00  0.00    +0.090 C 
ATOM     27  N1  UNL     1     -24.773  20.765 -13.140  0.00  0.00    -0.267 NA
ATOM     28  C2  UNL     1     -24.534  22.196 -13.237  0.00  0.00    +0.090 C 
ENDBRANCH  25  27
ENDBRANCH  23  25
ENDBRANCH  20  24
ENDBRANCH   1  22
BRANCH   2  29
ATOM     29  O2  UNL     1     -20.768  17.680 -16.925  0.00  0.00    -0.475 OA
BRANCH  29  30
ATOM     30  C21 UNL     1     -20.311  18.359 -18.087  0.00  0.00    +0.198 C 
ATOM     31  C22 UNL     1     -21.340  19.358 -18.534  0.00  0.00    +0.078 C 
ATOM     32  C23 UNL     1     -20.506  20.445 -19.172  0.00  0.00    +0.146 C 
ATOM     33  O3  UNL     1     -19.169  20.329 -18.678  0.00  0.00    -0.350 OA
ATOM     34  C24 UNL     1     -19.122  19.231 -17.759  0.00  0.00    +0.185 C 
ENDBRANCH  29  30
ENDBRANCH   2  29
TORSDOF 7
ENDMDL
