MODEL 1
REMARK VINA RESULT:    -9.053      0.000      0.000
REMARK INTER + INTRA:         -13.495
REMARK INTER:                 -12.757
REMARK INTRA:                  -0.738
REMARK UNBOUND:                -0.738
REMARK  Name = /tmp/tmp9hj8jkns/5V90_candidate_0027.pdb
REMARK  7 active torsions:
REMARK  status: ('A' for Active; 'I' for Inactive)
REMARK    1  A    between atoms: C4_5  and  N2_8
REMARK    2  A    between atoms: C7_9  and  C8_11
REMARK    3  A    between atoms: C10_13  and  O4_41
REMARK    4  A    between atoms: C11_14  and  N3_18
REMARK    5  A    between atoms: C16_22  and  C27_37
REMARK    6  A    between atoms: C17_23  and  O2_25
REMARK    7  A    between atoms: O2_25  and  C18_26
REMARK                            x       y       z     vdW  Elec       q    Type
REMARK                         _______ _______ _______ _____ _____    ______ ____
ROOT
ATOM      1  N3  UNL     1     -22.595  16.642 -17.449  0.00  0.00    -0.174 NA
ATOM      2  C14 UNL     1     -21.931  15.414 -17.661  0.00  0.00    +0.243 A 
ATOM      3  N4  UNL     1     -20.635  15.258 -17.334  0.00  0.00    -0.210 NA
ATOM      4  C15 UNL     1     -20.068  14.063 -17.578  0.00  0.00    +0.110 A 
ATOM      5  C16 UNL     1     -20.714  13.005 -18.147  0.00  0.00    +0.144 A 
ATOM      6  C17 UNL     1     -22.028  13.242 -18.447  0.00  0.00    +0.237 A 
ATOM      7  N5  UNL     1     -22.650  14.418 -18.209  0.00  0.00    -0.177 NA
ENDROOT
BRANCH   1  11
ATOM      8  C8  UNL     1     -21.027  20.419 -16.315  0.00  0.00    +0.086 A 
ATOM      9  C9  UNL     1     -22.031  19.800 -15.569  0.00  0.00    +0.045 A 
ATOM     10  C10 UNL     1     -22.542  18.549 -15.931  0.00  0.00    +0.154 A 
ATOM     11  C11 UNL     1     -22.045  17.888 -17.067  0.00  0.00    +0.110 A 
ATOM     12  C12 UNL     1     -21.035  18.517 -17.804  0.00  0.00    +0.049 A 
ATOM     13  C13 UNL     1     -20.531  19.763 -17.437  0.00  0.00    +0.146 A 
ATOM     14  F1  UNL     1     -19.582  20.305 -18.215  0.00  0.00    -0.204 F 
BRANCH   8  16
ATOM     15  N2  UNL     1     -21.356  22.815 -16.265  0.00  0.00    -0.203 NA
ATOM     16  C7  UNL     1     -20.583  21.754 -15.860  0.00  0.00    +0.267 C 
ATOM     17  O1  UNL     1     -19.575  21.863 -15.167  0.00  0.00    -0.268 OA
BRANCH  15  22
ATOM     18  C1  UNL     1     -20.941  28.337 -16.032  0.00  0.00    +0.090 C 
ATOM     19  N1  UNL     1     -20.764  26.911 -15.827  0.00  0.00    -0.271 NA
ATOM     20  C2  UNL     1     -21.989  26.398 -15.228  0.00  0.00    +0.074 C 
ATOM     21  C3  UNL     1     -22.312  24.964 -15.604  0.00  0.00    +0.039 C 
ATOM     22  C4  UNL     1     -21.053  24.172 -15.885  0.00  0.00    +0.098 C 
ATOM     23  C5  UNL     1     -20.224  24.828 -16.972  0.00  0.00    +0.039 C 
ATOM     24  C6  UNL     1     -20.540  26.301 -17.128  0.00  0.00    +0.074 C 
ENDBRANCH  15  22
ENDBRANCH   8  16
BRANCH  10  25
ATOM     25  O4  UNL     1     -23.535  17.925 -15.217  0.00  0.00    -0.470 OA
ATOM     26  C28 UNL     1     -24.680  18.758 -15.066  0.00  0.00    +0.253 C 
ENDBRANCH  10  25
ENDBRANCH   1  11
BRANCH   5  27
ATOM     27  C27 UNL     1     -20.026  11.725 -18.389  0.00  0.00    +0.424 C 
ATOM     28  F2  UNL     1     -18.696  11.774 -18.089  0.00  0.00    -0.166 F 
ATOM     29  F3  UNL     1     -20.524  10.696 -17.656  0.00  0.00    -0.166 F 
ATOM     30  F4  UNL     1     -20.082  11.327 -19.690  0.00  0.00    -0.166 F 
ENDBRANCH   5  27
BRANCH   6  31
ATOM     31  O2  UNL     1     -22.734  12.203 -19.044  0.00  0.00    -0.436 OA
BRANCH  31  32
ATOM     32  C18 UNL     1     -23.842  11.759 -18.377  0.00  0.00    +0.151 A 
ATOM     33  C19 UNL     1     -24.469  12.562 -17.424  0.00  0.00    +0.038 A 
ATOM     34  C20 UNL     1     -25.639  12.117 -16.786  0.00  0.00    +0.003 A 
ATOM     35  C21 UNL     1     -26.220  10.886 -17.109  0.00  0.00    -0.002 A 
ATOM     36  C22 UNL     1     -25.607  10.117 -18.081  0.00  0.00    +0.005 A 
ATOM     37  C23 UNL     1     -24.436  10.554 -18.702  0.00  0.00    +0.086 A 
ATOM     38  C24 UNL     1     -24.026   9.526 -19.669  0.00  0.00    +0.252 C 
ATOM     39  O3  UNL     1     -23.047   9.572 -20.389  0.00  0.00    -0.270 OA
ATOM     40  N6  UNL     1     -24.969   8.523 -19.582  0.00  0.00    -0.270 N 
ATOM     41  C25 UNL     1     -26.028   8.790 -18.630  0.00  0.00    +0.121 C 
ATOM     42  C26 UNL     1     -24.989   7.370 -20.440  0.00  0.00    +0.116 C 
ENDBRANCH  31  32
ENDBRANCH   6  31
TORSDOF 7
ENDMDL
