MODEL 1
REMARK VINA RESULT:    -7.208      0.000      0.000
REMARK INTER + INTRA:          -9.564
REMARK INTER:                  -9.315
REMARK INTRA:                  -0.249
REMARK UNBOUND:                -0.249
REMARK  Name = /tmp/tmpgd9nwje5/5V90_candidate_0070.pdb
REMARK  5 active torsions:
REMARK  status: ('A' for Active; 'I' for Inactive)
REMARK    1  A    between atoms: C4_5  and  C9_11
REMARK    2  A    between atoms: C6_7  and  O1_8
REMARK    3  A    between atoms: C9_11  and  S1_12
REMARK    4  A    between atoms: S1_12  and  C10_14
REMARK    5  A    between atoms: C14_20  and  O3_23
REMARK                            x       y       z     vdW  Elec       q    Type
REMARK                         _______ _______ _______ _____ _____    ______ ____
ROOT
ATOM      1  S1  UNL     1     -20.135  17.930 -18.163  0.00  0.00    +0.107 S 
ATOM      2  O2  UNL     1     -21.208  18.530 -19.028  0.00  0.00    -0.248 OA
ENDROOT
BRANCH   1   3
ATOM      3  C10 UNL     1     -20.314  16.150 -18.348  0.00  0.00    +0.221 A 
ATOM      4  N2  UNL     1     -19.339  15.316 -18.646  0.00  0.00    -0.218 NA
ATOM      5  C11 UNL     1     -19.931  14.073 -18.684  0.00  0.00    +0.101 A 
ATOM      6  C12 UNL     1     -21.290  14.164 -18.400  0.00  0.00    +0.104 A 
ATOM      7  N3  UNL     1     -21.503  15.498 -18.190  0.00  0.00    -0.218 NA
ATOM      8  C13 UNL     1     -22.147  13.065 -18.365  0.00  0.00    +0.058 A 
ATOM      9  C14 UNL     1     -21.571  11.817 -18.636  0.00  0.00    +0.140 A 
ATOM     10  C15 UNL     1     -20.210  11.699 -18.923  0.00  0.00    +0.039 A 
ATOM     11  C16 UNL     1     -19.369  12.817 -18.952  0.00  0.00    +0.024 A 
BRANCH   9  12
ATOM     12  O3  UNL     1     -22.276  10.641 -18.640  0.00  0.00    -0.471 OA
ATOM     13  C17 UNL     1     -22.971  10.454 -19.867  0.00  0.00    +0.252 C 
ENDBRANCH   9  12
ENDBRANCH   1   3
BRANCH   1  14
ATOM     14  C9  UNL     1     -20.690  17.976 -16.438  0.00  0.00    +0.145 C 
BRANCH  14  19
ATOM     15  C1  UNL     1     -23.372  22.927 -15.397  0.00  0.00    +0.036 C 
ATOM     16  C2  UNL     1     -22.729  21.608 -15.624  0.00  0.00    +0.031 A 
ATOM     17  C3  UNL     1     -21.422  21.547 -16.065  0.00  0.00    +0.097 A 
ATOM     18  N1  UNL     1     -20.763  20.396 -16.315  0.00  0.00    -0.248 NA
ATOM     19  C4  UNL     1     -21.443  19.236 -16.143  0.00  0.00    +0.072 A 
ATOM     20  C5  UNL     1     -22.762  19.193 -15.696  0.00  0.00    +0.026 A 
ATOM     21  C6  UNL     1     -23.394  20.405 -15.417  0.00  0.00    +0.133 A 
ATOM     22  C8  UNL     1     -23.485  17.897 -15.547  0.00  0.00    +0.035 C 
BRANCH  21  23
ATOM     23  O1  UNL     1     -24.698  20.428 -15.004  0.00  0.00    -0.472 OA
ATOM     24  C7  UNL     1     -24.666  20.395 -13.579  0.00  0.00    +0.252 C 
ENDBRANCH  21  23
ENDBRANCH  14  19
ENDBRANCH   1  14
TORSDOF 5
ENDMDL
