MODEL 1
REMARK VINA RESULT:    -9.402      0.000      0.000
REMARK INTER + INTRA:         -10.415
REMARK INTER:                 -11.051
REMARK INTRA:                   0.636
REMARK UNBOUND:                 0.636
REMARK  Name = /tmp/tmpu47joit3/5V90_candidate_0018.pdb
REMARK  3 active torsions:
REMARK  status: ('A' for Active; 'I' for Inactive)
REMARK    1  A    between atoms: C4_6  and  C5_7
REMARK    2  A    between atoms: C9_11  and  C12_14
REMARK    3  A    between atoms: C27_32  and  C29_34
REMARK                            x       y       z     vdW  Elec       q    Type
REMARK                         _______ _______ _______ _____ _____    ______ ____
ROOT
ATOM      1  C5  UNL     1     -20.877  11.660 -18.527  0.00  0.00    +0.149 C 
ATOM      2  C6  UNL     1     -22.350  11.239 -18.333  0.00  0.00    +0.002 A 
ATOM      3  C7  UNL     1     -23.400  12.116 -18.613  0.00  0.00    -0.002 A 
ATOM      4  C8  UNL     1     -24.738  11.792 -18.387  0.00  0.00    +0.031 A 
ATOM      5  C9  UNL     1     -25.060  10.497 -17.979  0.00  0.00    +0.068 A 
ATOM      6  C10 UNL     1     -24.036   9.571 -17.774  0.00  0.00    +0.010 A 
ATOM      7  C11 UNL     1     -22.699   9.940 -17.944  0.00  0.00    -0.002 A 
ATOM      8  C13 UNL     1     -25.745  12.892 -18.558  0.00  0.00    +0.233 C 
ATOM      9  O1  UNL     1     -26.215  13.344 -17.286  0.00  0.00    -0.471 OA
ATOM     10  C14 UNL     1     -25.535  14.427 -16.797  0.00  0.00    +0.139 A 
ATOM     11  C15 UNL     1     -26.068  15.031 -15.663  0.00  0.00    +0.037 A 
ATOM     12  C16 UNL     1     -25.395  16.090 -15.059  0.00  0.00    +0.003 A 
ATOM     13  C17 UNL     1     -24.167  16.520 -15.566  0.00  0.00    +0.000 A 
ATOM     14  C18 UNL     1     -23.593  15.915 -16.689  0.00  0.00    +0.003 A 
ATOM     15  C19 UNL     1     -24.323  14.891 -17.307  0.00  0.00    +0.037 A 
ATOM     16  C20 UNL     1     -22.268  16.340 -17.188  0.00  0.00    +0.004 A 
ATOM     17  C21 UNL     1     -21.302  15.453 -17.738  0.00  0.00    +0.017 A 
ATOM     18  C22 UNL     1     -21.498  14.064 -17.816  0.00  0.00    -0.001 A 
ATOM     19  C23 UNL     1     -20.606  13.177 -18.421  0.00  0.00    +0.003 A 
ATOM     20  C24 UNL     1     -19.415  13.729 -18.893  0.00  0.00    -0.001 A 
ATOM     21  C25 UNL     1     -19.169  15.101 -18.788  0.00  0.00    +0.019 A 
ATOM     22  C26 UNL     1     -20.089  15.976 -18.226  0.00  0.00    +0.082 A 
ATOM     23  N4  UNL     1     -19.797  17.284 -18.165  0.00  0.00    -0.235 NA
ATOM     24  C27 UNL     1     -20.713  18.116 -17.615  0.00  0.00    +0.149 A 
ATOM     25  C28 UNL     1     -21.936  17.696 -17.126  0.00  0.00    +0.030 A 
ATOM     26  N6  UNL     1     -20.528  11.235 -19.897  0.00  0.00    -0.119 NA
ENDROOT
BRANCH   1  32
ATOM     27  C1  UNL     1     -17.851  10.844 -18.925  0.00  0.00    +0.132 C 
ATOM     28  N1  UNL     1     -18.662  10.598 -17.755  0.00  0.00    -0.309 N 
ATOM     29  C2  UNL     1     -18.186   9.964 -16.646  0.00  0.00    +0.178 A 
ATOM     30  N2  UNL     1     -19.114   9.876 -15.722  0.00  0.00    -0.223 NA
ATOM     31  C3  UNL     1     -20.221  10.477 -16.263  0.00  0.00    +0.115 A 
ATOM     32  C4  UNL     1     -19.972  10.945 -17.541  0.00  0.00    +0.081 A 
ENDBRANCH   1  32
BRANCH   5  33
ATOM     33  C12 UNL     1     -26.412  10.085 -17.761  0.00  0.00    +0.100 C 
ATOM     34  N3  UNL     1     -27.516   9.766 -17.596  0.00  0.00    -0.191 NA
ENDBRANCH   5  33
BRANCH  24  35
ATOM     35  C29 UNL     1     -20.367  19.505 -17.558  0.00  0.00    +0.120 C 
ATOM     36  N5  UNL     1     -20.077  20.628 -17.478  0.00  0.00    -0.189 NA
ENDBRANCH  24  35
TORSDOF 3
ENDMDL
