MODEL 1
REMARK VINA RESULT:    -7.115      0.000      0.000
REMARK INTER + INTRA:          -8.203
REMARK INTER:                  -7.947
REMARK INTRA:                  -0.256
REMARK UNBOUND:                -0.256
REMARK  Name = /tmp/tmptek47ils/5V90_candidate_0076.pdb
REMARK  2 active torsions:
REMARK  status: ('A' for Active; 'I' for Inactive)
REMARK    1  A    between atoms: N2_5  and  C5_7
REMARK    2  A    between atoms: C5_7  and  C6_8
REMARK                            x       y       z     vdW  Elec       q    Type
REMARK                         _______ _______ _______ _____ _____    ______ ____
ROOT
ATOM      1  C6  UNL     1     -20.252  11.713 -18.112  0.00  0.00    +0.099 A 
ATOM      2  C7  UNL     1     -21.301  10.886 -18.211  0.00  0.00    +0.131 A 
ATOM      3  C8  UNL     1     -21.361   9.681 -17.335  0.00  0.00    +0.295 A 
ATOM      4  O1  UNL     1     -22.302   8.891 -17.384  0.00  0.00    -0.264 OA
ATOM      5  N3  UNL     1     -20.291   9.523 -16.482  0.00  0.00    -0.151 NA
ATOM      6  C9  UNL     1     -19.191  10.359 -16.390  0.00  0.00    +0.371 A 
ATOM      7  O2  UNL     1     -18.255  10.139 -15.624  0.00  0.00    -0.243 OA
ATOM      8  N4  UNL     1     -19.226  11.449 -17.240  0.00  0.00    -0.192 NA
ATOM      9 CL1  UNL     1     -22.600  11.154 -19.310  0.00  0.00    -0.076 Cl
ENDROOT
BRANCH   1  10
ATOM     10  C5  UNL     1     -20.095  12.947 -18.939  0.00  0.00    +0.139 C 
BRANCH  10  15
ATOM     11  C1  UNL     1     -21.834  15.766 -17.311  0.00  0.00    +0.029 C 
ATOM     12  C2  UNL     1     -20.603  16.456 -17.897  0.00  0.00    +0.065 C 
ATOM     13  C3  UNL     1     -19.771  15.294 -18.356  0.00  0.00    +0.131 C 
ATOM     14  N1  UNL     1     -18.629  15.486 -18.916  0.00  0.00    -0.137 NA
ATOM     15  N2  UNL     1     -20.416  14.105 -18.140  0.00  0.00    -0.290 N 
ATOM     16  C4  UNL     1     -21.807  14.322 -17.802  0.00  0.00    +0.093 C 
ENDBRANCH  10  15
ENDBRANCH   1  10
TORSDOF 2
ENDMDL
