MODEL 1
REMARK VINA RESULT:    -7.332      0.000      0.000
REMARK INTER + INTRA:         -10.774
REMARK INTER:                  -9.904
REMARK INTRA:                  -0.870
REMARK UNBOUND:                -0.870
REMARK  Name = /tmp/tmp6h_tuv5f/5V90_candidate_0032.pdb
REMARK  6 active torsions:
REMARK  status: ('A' for Active; 'I' for Inactive)
REMARK    1  A    between atoms: O1_2  and  C2_3
REMARK    2  A    between atoms: C2_3  and  C3_5
REMARK    3  A    between atoms: C7_9  and  C10_15
REMARK    4  A    between atoms: C8_11  and  C9_13
REMARK    5  A    between atoms: C13_18  and  C16_21
REMARK    6  A    between atoms: C16_21  and  O5_23
REMARK                            x       y       z     vdW  Elec       q    Type
REMARK                         _______ _______ _______ _____ _____    ______ ____
ROOT
ATOM      1  C3  UNL     1     -25.513  13.345 -18.333  0.00  0.00    +0.180 C 
ATOM      2  C4  UNL     1     -24.102  13.957 -18.238  0.00  0.00    +0.059 C 
ATOM      3  C5  UNL     1     -23.038  12.920 -18.383  0.00  0.00    -0.003 A 
ATOM      4  C6  UNL     1     -23.341  11.606 -18.693  0.00  0.00    +0.077 A 
ATOM      5  C7  UNL     1     -24.707  11.090 -18.875  0.00  0.00    +0.138 C 
ATOM      6  N1  UNL     1     -25.581  12.191 -19.244  0.00  0.00    -0.263 N 
ATOM      7  C8  UNL     1     -25.914  12.537 -20.542  0.00  0.00    +0.243 C 
ATOM      8  O3  UNL     1     -26.306  13.672 -20.823  0.00  0.00    -0.273 OA
ATOM      9  N2  UNL     1     -22.179  10.901 -18.719  0.00  0.00    -0.248 NA
ATOM     10  C18 UNL     1     -21.115  11.733 -18.473  0.00  0.00    +0.081 A 
ATOM     11  C19 UNL     1     -19.748  11.446 -18.421  0.00  0.00    +0.019 A 
ATOM     12  C20 UNL     1     -18.887  12.508 -18.134  0.00  0.00    +0.002 A 
ATOM     13  C21 UNL     1     -19.369  13.794 -17.909  0.00  0.00    +0.000 A 
ATOM     14  C22 UNL     1     -20.738  14.065 -17.963  0.00  0.00    +0.001 A 
ATOM     15  C23 UNL     1     -21.629  13.016 -18.253  0.00  0.00    +0.015 A 
ENDROOT
BRANCH   5  16
ATOM     16  C10 UNL     1     -24.991   9.697 -19.288  0.00  0.00    +0.001 A 
ATOM     17  C11 UNL     1     -26.135   9.071 -18.787  0.00  0.00    -0.002 A 
ATOM     18  C12 UNL     1     -26.448   7.763 -19.151  0.00  0.00    +0.006 A 
ATOM     19  C13 UNL     1     -25.613   7.067 -20.022  0.00  0.00    +0.076 A 
ATOM     20  C14 UNL     1     -24.463   7.677 -20.522  0.00  0.00    +0.006 A 
ATOM     21  C15 UNL     1     -24.155   8.985 -20.154  0.00  0.00    -0.002 A 
BRANCH  19  22
ATOM     22  C16 UNL     1     -25.975   5.685 -20.385  0.00  0.00    +0.341 C 
ATOM     23  O4  UNL     1     -26.327   5.348 -21.503  0.00  0.00    -0.245 OA
BRANCH  22  24
ATOM     24  O5  UNL     1     -25.857   4.874 -19.306  0.00  0.00    -0.441 OA
ATOM     25  C17 UNL     1     -24.662   4.101 -19.380  0.00  0.00    +0.256 C 
ENDBRANCH  22  24
ENDBRANCH  19  22
ENDBRANCH   5  16
BRANCH   1  26
ATOM     26  C2  UNL     1     -26.021  13.047 -16.935  0.00  0.00    +0.336 C 
ATOM     27  O2  UNL     1     -26.974  12.325 -16.670  0.00  0.00    -0.248 OA
BRANCH  26  29
ATOM     28  C1  UNL     1     -26.030  14.497 -15.157  0.00  0.00    +0.256 C 
ATOM     29  O1  UNL     1     -25.242  13.687 -16.022  0.00  0.00    -0.443 OA
ENDBRANCH  26  29
ENDBRANCH   1  26
BRANCH   7  30
ATOM     30  C9  UNL     1     -25.779  11.482 -21.611  0.00  0.00    +0.180 C 
ATOM     31 CL1  UNL     1     -27.359  10.695 -21.826  0.00  0.00    -0.103 Cl
ENDBRANCH   7  30
TORSDOF 6
ENDMDL
