MODEL 1
REMARK VINA RESULT:    -8.033      0.000      0.000
REMARK INTER + INTRA:         -12.738
REMARK INTER:                 -10.850
REMARK INTRA:                  -1.888
REMARK UNBOUND:                -1.888
REMARK  Name = /tmp/tmpmnti0rc8/5V90_candidate_0067.pdb
REMARK  6 active torsions:
REMARK  status: ('A' for Active; 'I' for Inactive)
REMARK    1  A    between atoms: N2_7  and  C6_8
REMARK    2  A    between atoms: C8_10  and  N8_32
REMARK    3  A    between atoms: C10_12  and  C11_14
REMARK    4  A    between atoms: C12_17  and  C13_19
REMARK    5  A    between atoms: C19_25  and  C21_29
REMARK    6  A    between atoms: C27_38  and  C28_40
REMARK                            x       y       z     vdW  Elec       q    Type
REMARK                         _______ _______ _______ _____ _____    ______ ____
ROOT
ATOM      1  C6  UNL     1       2.508  20.067 -23.767  0.00  0.00    +0.133 A 
ATOM      2  C7  UNL     1       2.067  18.882 -24.368  0.00  0.00    +0.049 A 
ATOM      3  C8  UNL     1       0.960  18.181 -23.884  0.00  0.00    +0.052 A 
ATOM      4  C9  UNL     1       0.289  18.747 -22.803  0.00  0.00    +0.037 A 
ATOM      5  C10 UNL     1       0.753  19.932 -22.250  0.00  0.00    +0.123 A 
ATOM      6  N3  UNL     1       1.847  20.591 -22.713  0.00  0.00    -0.227 NA
ENDROOT
BRANCH   1  13
ATOM      7  C1  UNL     1       5.392  21.302 -22.740  0.00  0.00    +0.023 C 
ATOM      8  C2  UNL     1       4.129  21.804 -23.404  0.00  0.00    +0.090 C 
ATOM      9  C3  UNL     1       4.464  23.088 -24.165  0.00  0.00    +0.092 C 
ATOM     10  N1  UNL     1       3.352  23.629 -24.943  0.00  0.00    -0.269 NA
ATOM     11  C4  UNL     1       2.725  22.571 -25.743  0.00  0.00    +0.094 C 
ATOM     12  C5  UNL     1       3.361  21.178 -25.672  0.00  0.00    +0.109 C 
ATOM     13  N2  UNL     1       3.613  20.761 -24.292  0.00  0.00    -0.292 N 
ATOM     14  C30 UNL     1       3.905  24.596 -25.873  0.00  0.00    +0.090 C 
ENDBRANCH   1  13
BRANCH   3  15
ATOM     15  N8  UNL     1       0.505  17.011 -24.493  0.00  0.00    -0.304 N 
ATOM     16  C23 UNL     1       1.480  15.929 -24.625  0.00  0.00    +0.112 C 
ATOM     17  C24 UNL     1       0.971  14.597 -24.080  0.00  0.00    +0.115 C 
ATOM     18  N9  UNL     1      -0.361  14.248 -24.544  0.00  0.00    -0.273 N 
ATOM     19  C25 UNL     1      -1.266  15.331 -24.905  0.00  0.00    +0.115 C 
ATOM     20  C26 UNL     1      -0.889  16.656 -24.250  0.00  0.00    +0.112 C 
ATOM     21  C27 UNL     1      -0.689  12.914 -24.625  0.00  0.00    +0.249 C 
ATOM     22  O2  UNL     1       0.086  12.013 -24.322  0.00  0.00    -0.270 OA
BRANCH  21  23
ATOM     23  C28 UNL     1      -2.066  12.651 -25.111  0.00  0.00    +0.058 C 
ATOM     24  C29 UNL     1      -2.215  11.856 -26.170  0.00  0.00    +0.005 C 
ENDBRANCH  21  23
ENDBRANCH   3  15
BRANCH   5  25
ATOM     25  C11 UNL     1       0.041  20.505 -21.111  0.00  0.00    +0.221 A 
ATOM     26  N4  UNL     1      -1.263  20.837 -21.121  0.00  0.00    -0.054 NA
ATOM     27  O1  UNL     1      -1.498  21.319 -19.839  0.00  0.00    -0.337 OA
ATOM     28  C12 UNL     1      -0.313  21.243 -19.166  0.00  0.00    +0.239 A 
ATOM     29  N5  UNL     1       0.665  20.768 -19.903  0.00  0.00    -0.189 NA
BRANCH  28  30
ATOM     30  C13 UNL     1      -0.308  21.702 -17.744  0.00  0.00    +0.091 C 
ATOM     31  C14 UNL     1      -0.213  20.474 -16.824  0.00  0.00    +0.013 C 
ATOM     32  C15 UNL     1       1.207  19.983 -16.580  0.00  0.00    +0.006 C 
ATOM     33  C16 UNL     1       2.066  21.057 -15.936  0.00  0.00    +0.033 C 
ATOM     34  C17 UNL     1       1.873  22.358 -16.634  0.00  0.00    +0.006 A 
ATOM     35  C18 UNL     1       0.813  22.689 -17.456  0.00  0.00    -0.001 A 
ATOM     36  C19 UNL     1       0.974  24.029 -17.970  0.00  0.00    +0.088 A 
ATOM     37  C20 UNL     1       2.125  24.639 -17.509  0.00  0.00    +0.127 A 
ATOM     38  S1  UNL     1       3.005  23.605 -16.464  0.00  0.00    -0.073 S 
ATOM     39  N6  UNL     1       2.574  25.887 -17.792  0.00  0.00    -0.120 NA
ATOM     40  C22 UNL     1      -1.652  22.342 -17.417  0.00  0.00    +0.014 C 
BRANCH  36  41
ATOM     41  C21 UNL     1       0.064  24.693 -18.858  0.00  0.00    +0.102 C 
ATOM     42  N7  UNL     1      -0.680  25.202 -19.588  0.00  0.00    -0.191 NA
ENDBRANCH  36  41
ENDBRANCH  28  30
ENDBRANCH   5  25
TORSDOF 6
ENDMDL
