MODEL 1
REMARK VINA RESULT:    -7.921      0.000      0.000
REMARK INTER + INTRA:          -9.160
REMARK INTER:                  -8.847
REMARK INTRA:                  -0.313
REMARK UNBOUND:                -0.313
REMARK  Name = /tmp/tmp_hit2uog/5V90_candidate_0091.pdb
REMARK  2 active torsions:
REMARK  status: ('A' for Active; 'I' for Inactive)
REMARK    1  A    between atoms: C16_19  and  S1_22
REMARK    2  A    between atoms: S1_22  and  C17_23
REMARK                            x       y       z     vdW  Elec       q    Type
REMARK                         _______ _______ _______ _____ _____    ______ ____
ROOT
ATOM      1  C1  UNL     1     -21.446  20.183 -16.252  0.00  0.00    +0.024 C 
ATOM      2  C2  UNL     1     -20.717  19.016 -16.880  0.00  0.00    +0.094 C 
ATOM      3  N1  UNL     1     -21.249  17.774 -16.359  0.00  0.00    -0.277 N 
ATOM      4  C3  UNL     1     -22.633  17.738 -15.929  0.00  0.00    +0.094 C 
ATOM      5  C4  UNL     1     -23.460  18.739 -16.708  0.00  0.00    +0.024 C 
ATOM      6  C5  UNL     1     -22.931  20.172 -16.594  0.00  0.00    +0.028 C 
ATOM      7  C6  UNL     1     -23.704  20.902 -15.480  0.00  0.00    +0.028 C 
ATOM      8  C7  UNL     1     -24.863  21.468 -16.236  0.00  0.00    -0.025 A 
ATOM      9  C8  UNL     1     -26.053  21.939 -15.718  0.00  0.00    -0.005 A 
ATOM     10  C9  UNL     1     -27.013  22.409 -16.615  0.00  0.00    -0.000 A 
ATOM     11  C10 UNL     1     -26.773  22.396 -17.996  0.00  0.00    -0.000 A 
ATOM     12  C11 UNL     1     -25.568  21.918 -18.508  0.00  0.00    -0.003 A 
ATOM     13  C12 UNL     1     -24.618  21.460 -17.611  0.00  0.00    -0.009 A 
ATOM     14  C13 UNL     1     -23.256  20.908 -17.924  0.00  0.00    +0.114 C 
ATOM     15  N2  UNL     1     -22.333  22.005 -18.198  0.00  0.00    -0.128 NA
ATOM     16  C14 UNL     1     -20.893  16.669 -17.129  0.00  0.00    +0.239 A 
ATOM     17  N3  UNL     1     -19.817  16.758 -17.929  0.00  0.00    -0.209 NA
ATOM     18  C15 UNL     1     -19.504  15.649 -18.635  0.00  0.00    +0.129 A 
ATOM     19  C16 UNL     1     -20.217  14.474 -18.582  0.00  0.00    +0.152 A 
ATOM     20  N4  UNL     1     -21.284  14.414 -17.774  0.00  0.00    -0.137 NA
ATOM     21  N5  UNL     1     -21.618  15.527 -17.040  0.00  0.00    -0.112 NA
ENDROOT
BRANCH  19  22
ATOM     22  S1  UNL     1     -19.735  13.069 -19.548  0.00  0.00    -0.064 S 
BRANCH  22  23
ATOM     23  C17 UNL     1     -19.888  11.746 -18.353  0.00  0.00    +0.046 A 
ATOM     24  C18 UNL     1     -21.015  10.924 -18.213  0.00  0.00    +0.098 A 
ATOM     25  C19 UNL     1     -20.993   9.922 -17.232  0.00  0.00    +0.181 A 
ATOM     26  N6  UNL     1     -19.918   9.725 -16.425  0.00  0.00    -0.225 NA
ATOM     27  C20 UNL     1     -18.850  10.530 -16.590  0.00  0.00    +0.101 A 
ATOM     28  C21 UNL     1     -18.784  11.538 -17.531  0.00  0.00    +0.028 A 
ATOM     29  N7  UNL     1     -22.112   9.076 -17.063  0.00  0.00    -0.106 NA
ATOM     30 CL1  UNL     1     -22.406  11.123 -19.233  0.00  0.00    -0.079 Cl
ENDBRANCH  22  23
ENDBRANCH  19  22
TORSDOF 2
ENDMDL
