MODEL 1
REMARK VINA RESULT:    -9.015      0.000      0.000
REMARK INTER + INTRA:         -10.721
REMARK INTER:                 -10.069
REMARK INTRA:                  -0.652
REMARK UNBOUND:                -0.652
REMARK  Name = /tmp/tmp4ncazyiy/5V90_candidate_0006.pdb
REMARK  2 active torsions:
REMARK  status: ('A' for Active; 'I' for Inactive)
REMARK    1  A    between atoms: C2_2  and  C3_3
REMARK    2  A    between atoms: C12_17  and  C16_22
REMARK                            x       y       z     vdW  Elec       q    Type
REMARK                         _______ _______ _______ _____ _____    ______ ____
ROOT
ATOM      1  C3  UNL     1     -25.957   9.765 -19.001  0.00  0.00    +0.249 C 
ATOM      2  O1  UNL     1     -27.043  10.232 -19.326  0.00  0.00    -0.270 OA
ATOM      3  N1  UNL     1     -24.844  10.540 -18.758  0.00  0.00    -0.273 N 
ATOM      4  C4  UNL     1     -25.043  11.977 -18.697  0.00  0.00    +0.115 C 
ATOM      5  C5  UNL     1     -23.770  12.767 -18.991  0.00  0.00    +0.114 C 
ATOM      6  N2  UNL     1     -22.649  12.272 -18.184  0.00  0.00    -0.290 N 
ATOM      7  C6  UNL     1     -22.398  10.850 -18.437  0.00  0.00    +0.114 C 
ATOM      8  C7  UNL     1     -23.638  10.014 -18.132  0.00  0.00    +0.115 C 
ATOM      9  C8  UNL     1     -21.494  13.037 -18.476  0.00  0.00    +0.135 A 
ATOM     10  N3  UNL     1     -20.454  12.423 -19.068  0.00  0.00    -0.209 NA
ATOM     11  C9  UNL     1     -19.374  13.167 -19.330  0.00  0.00    +0.200 A 
ATOM     12  N4  UNL     1     -19.230  14.466 -19.048  0.00  0.00    -0.222 NA
ATOM     13  C10 UNL     1     -20.254  15.076 -18.436  0.00  0.00    +0.113 A 
ATOM     14  C11 UNL     1     -20.173  16.428 -18.088  0.00  0.00    +0.159 A 
ATOM     15  C12 UNL     1     -21.203  17.127 -17.433  0.00  0.00    +0.041 A 
ATOM     16  C13 UNL     1     -22.360  16.414 -17.113  0.00  0.00    +0.060 A 
ATOM     17  C14 UNL     1     -22.467  15.069 -17.449  0.00  0.00    +0.016 A 
ATOM     18  C15 UNL     1     -21.431  14.393 -18.119  0.00  0.00    +0.052 A 
ATOM     19 CL1  UNL     1     -23.696  17.126 -16.288  0.00  0.00    -0.082 Cl
ATOM     20  F2  UNL     1     -19.047  17.102 -18.395  0.00  0.00    -0.203 F 
ENDROOT
BRANCH  15  21
ATOM     21  C16 UNL     1     -21.042  18.549 -17.133  0.00  0.00    +0.021 A 
ATOM     22  C17 UNL     1     -21.200  19.501 -18.172  0.00  0.00    +0.092 A 
ATOM     23  C18 UNL     1     -21.041  20.855 -17.876  0.00  0.00    +0.077 A 
ATOM     24  C19 UNL     1     -20.727  21.283 -16.581  0.00  0.00    +0.148 A 
ATOM     25  C20 UNL     1     -20.567  20.344 -15.568  0.00  0.00    +0.030 A 
ATOM     26  C21 UNL     1     -20.721  18.992 -15.841  0.00  0.00    +0.004 A 
ATOM     27  F1  UNL     1     -20.576  22.585 -16.301  0.00  0.00    -0.204 F 
ATOM     28  S1  UNL     1     -21.293  21.778 -19.304  0.00  0.00    -0.046 S 
ATOM     29  C22 UNL     1     -21.585  20.338 -20.200  0.00  0.00    +0.201 A 
ATOM     30  N5  UNL     1     -21.508  19.228 -19.499  0.00  0.00    -0.221 NA
ATOM     31  N6  UNL     1     -21.869  20.407 -21.525  0.00  0.00    -0.100 NA
ENDBRANCH  15  21
BRANCH   1  33
ATOM     32  C1  UNL     1     -25.653   7.568 -19.960  0.00  0.00    +0.005 C 
ATOM     33  C2  UNL     1     -25.726   8.308 -18.852  0.00  0.00    +0.058 C 
ENDBRANCH   1  33
TORSDOF 2
ENDMDL
