MODEL 1
REMARK VINA RESULT:    -7.339      0.000      0.000
REMARK INTER + INTRA:         -10.700
REMARK INTER:                  -9.055
REMARK INTRA:                  -1.645
REMARK UNBOUND:                -1.645
REMARK  Name = /tmp/tmpl5zubj0m/5V90_candidate_0099.pdb
REMARK  4 active torsions:
REMARK  status: ('A' for Active; 'I' for Inactive)
REMARK    1  A    between atoms: N4_12  and  C19_28
REMARK    2  A    between atoms: C9_15  and  C13_20
REMARK    3  A    between atoms: C23_33  and  C24_34
REMARK    4  A    between atoms: C28_38  and  C29_40
REMARK                            x       y       z     vdW  Elec       q    Type
REMARK                         _______ _______ _______ _____ _____    ______ ____
ROOT
ATOM      1  C1  UNL     1      -8.024  28.499 -23.511  0.00  0.00    +0.023 C 
ATOM      2  C2  UNL     1      -7.227  28.833 -22.271  0.00  0.00    +0.094 C 
ATOM      3  C3  UNL     1      -6.175  29.881 -22.624  0.00  0.00    +0.113 C 
ATOM      4  N1  UNL     1      -5.730  30.702 -21.515  0.00  0.00    -0.273 N 
ATOM      5  C4  UNL     1      -6.702  31.078 -20.503  0.00  0.00    +0.115 C 
ATOM      6  C5  UNL     1      -8.118  30.646 -20.862  0.00  0.00    +0.114 C 
ATOM      7  N2  UNL     1      -8.155  29.229 -21.197  0.00  0.00    -0.291 N 
ATOM      8  C6  UNL     1      -8.622  28.240 -20.337  0.00  0.00    +0.139 A 
ATOM      9  N3  UNL     1      -8.178  27.030 -20.504  0.00  0.00    -0.177 NA
ATOM     10  C7  UNL     1      -8.566  25.972 -19.720  0.00  0.00    +0.356 A 
ATOM     11  O1  UNL     1      -8.116  24.853 -19.959  0.00  0.00    -0.244 OA
ATOM     12  N4  UNL     1      -9.473  26.196 -18.691  0.00  0.00    -0.242 N 
ATOM     13  C8  UNL     1      -9.997  27.482 -18.450  0.00  0.00    +0.154 A 
ATOM     14  N5  UNL     1     -10.859  27.682 -17.415  0.00  0.00    -0.225 NA
ATOM     15  C9  UNL     1     -11.365  28.923 -17.207  0.00  0.00    +0.115 A 
ATOM     16  C10 UNL     1     -11.027  29.995 -18.019  0.00  0.00    +0.158 A 
ATOM     17  C11 UNL     1     -10.137  29.791 -19.059  0.00  0.00    +0.037 A 
ATOM     18  C12 UNL     1      -9.602  28.526 -19.268  0.00  0.00    +0.069 A 
ATOM     19  F1  UNL     1     -11.528  31.219 -17.807  0.00  0.00    -0.203 F 
ATOM     20  C28 UNL     1      -4.423  31.131 -21.517  0.00  0.00    +0.249 C 
ATOM     21  O3  UNL     1      -3.624  30.844 -22.402  0.00  0.00    -0.270 OA
ENDROOT
BRANCH  15  22
ATOM     22  C13 UNL     1     -12.287  29.045 -16.083  0.00  0.00    +0.086 A 
ATOM     23  C14 UNL     1     -13.675  29.087 -16.256  0.00  0.00    +0.199 A 
ATOM     24  C15 UNL     1     -14.549  29.187 -15.176  0.00  0.00    +0.042 A 
ATOM     25  C16 UNL     1     -14.039  29.248 -13.883  0.00  0.00    +0.006 A 
ATOM     26  C17 UNL     1     -12.663  29.212 -13.677  0.00  0.00    +0.030 A 
ATOM     27  C18 UNL     1     -11.804  29.110 -14.770  0.00  0.00    +0.145 A 
ATOM     28  F2  UNL     1     -10.482  29.108 -14.543  0.00  0.00    -0.204 F 
ATOM     29  O2  UNL     1     -14.223  29.021 -17.507  0.00  0.00    -0.286 OA
ENDBRANCH  15  22
BRANCH  12  30
ATOM     30  C19 UNL     1      -9.881  25.132 -17.831  0.00  0.00    +0.079 A 
ATOM     31  C20 UNL     1      -9.192  24.879 -16.635  0.00  0.00    -0.003 A 
ATOM     32  C21 UNL     1      -9.594  23.827 -15.815  0.00  0.00    +0.018 A 
ATOM     33  C22 UNL     1     -10.669  23.054 -16.216  0.00  0.00    +0.098 A 
ATOM     34  N6  UNL     1     -11.353  23.251 -17.361  0.00  0.00    -0.247 NA
ATOM     35  C23 UNL     1     -10.955  24.281 -18.156  0.00  0.00    +0.074 A 
ATOM     36  C27 UNL     1      -8.054  25.720 -16.164  0.00  0.00    +0.033 C 
BRANCH  35  37
ATOM     37  C24 UNL     1     -11.664  24.415 -19.471  0.00  0.00    +0.042 C 
ATOM     38  C25 UNL     1     -13.165  24.375 -19.300  0.00  0.00    +0.006 C 
ATOM     39  C26 UNL     1     -11.224  23.327 -20.421  0.00  0.00    +0.006 C 
ENDBRANCH  35  37
ENDBRANCH  12  30
BRANCH  20  40
ATOM     40  C29 UNL     1      -4.059  31.975 -20.354  0.00  0.00    +0.058 C 
ATOM     41  C30 UNL     1      -3.060  31.567 -19.570  0.00  0.00    +0.005 C 
ENDBRANCH  20  40
TORSDOF 4
ENDMDL
