MODEL 1
REMARK VINA RESULT:    -8.196      0.000      0.000
REMARK INTER + INTRA:         -12.114
REMARK INTER:                 -11.071
REMARK INTRA:                  -1.043
REMARK UNBOUND:                -1.043
REMARK  Name = /tmp/tmpkphki6oc/5V90_candidate_0088.pdb
REMARK  6 active torsions:
REMARK  status: ('A' for Active; 'I' for Inactive)
REMARK    1  A    between atoms: C3_3  and  C15_20
REMARK    2  A    between atoms: C9_11  and  O3_13
REMARK    3  A    between atoms: O3_13  and  C11_14
REMARK    4  A    between atoms: C15_20  and  C16_21
REMARK    5  A    between atoms: N4_27  and  S1_28
REMARK    6  A    between atoms: S1_28  and  N5_31
REMARK                            x       y       z     vdW  Elec       q    Type
REMARK                         _______ _______ _______ _____ _____    ______ ____
ROOT
ATOM      1  C1  UNL     1     -19.414  18.569 -18.202  0.00  0.00    +0.031 C 
ATOM      2  C2  UNL     1     -20.479  17.675 -17.644  0.00  0.00    -0.016 A 
ATOM      3  C3  UNL     1     -21.482  18.122 -16.867  0.00  0.00    +0.054 A 
ATOM      4  C4  UNL     1     -22.518  17.209 -16.337  0.00  0.00    +0.342 A 
ATOM      5  O1  UNL     1     -23.410  17.600 -15.589  0.00  0.00    -0.245 OA
ATOM      6  O2  UNL     1     -22.439  15.871 -16.706  0.00  0.00    -0.421 OA
ATOM      7  C5  UNL     1     -21.399  15.403 -17.528  0.00  0.00    +0.151 A 
ATOM      8  C6  UNL     1     -20.417  16.264 -18.004  0.00  0.00    +0.031 A 
ATOM      9  C7  UNL     1     -19.412  15.737 -18.818  0.00  0.00    +0.006 A 
ATOM     10  C8  UNL     1     -19.393  14.379 -19.138  0.00  0.00    +0.038 A 
ATOM     11  C9  UNL     1     -20.373  13.531 -18.625  0.00  0.00    +0.152 A 
ATOM     12  C10 UNL     1     -21.400  14.046 -17.835  0.00  0.00    +0.075 A 
ENDROOT
BRANCH  11  13
ATOM     13  O3  UNL     1     -20.334  12.218 -19.026  0.00  0.00    -0.422 OA
BRANCH  13  14
ATOM     14  C11 UNL     1     -20.056  11.274 -18.051  0.00  0.00    +0.325 A 
ATOM     15  N1  UNL     1     -18.848  11.377 -17.477  0.00  0.00    -0.192 NA
ATOM     16  C12 UNL     1     -18.595  10.494 -16.495  0.00  0.00    +0.105 A 
ATOM     17  C13 UNL     1     -19.479   9.541 -16.048  0.00  0.00    +0.042 A 
ATOM     18  C14 UNL     1     -20.691   9.559 -16.694  0.00  0.00    +0.105 A 
ATOM     19  N2  UNL     1     -21.017  10.410 -17.682  0.00  0.00    -0.192 NA
ENDBRANCH  13  14
ENDBRANCH  11  13
BRANCH   3  20
ATOM     20  C15 UNL     1     -21.653  19.543 -16.430  0.00  0.00    +0.061 C 
BRANCH  20  21
ATOM     21  C16 UNL     1     -22.302  20.430 -17.435  0.00  0.00    +0.014 A 
ATOM     22  C17 UNL     1     -21.517  21.381 -18.084  0.00  0.00    +0.171 A 
ATOM     23  C18 UNL     1     -22.066  22.092 -19.145  0.00  0.00    +0.200 A 
ATOM     24  N3  UNL     1     -23.402  22.058 -19.449  0.00  0.00    -0.224 NA
ATOM     25  C19 UNL     1     -24.130  21.146 -18.776  0.00  0.00    +0.100 A 
ATOM     26  C20 UNL     1     -23.639  20.302 -17.789  0.00  0.00    +0.019 A 
ATOM     27  N4  UNL     1     -21.283  22.946 -19.978  0.00  0.00    -0.063 NA
ATOM     28  F1  UNL     1     -20.278  21.590 -17.615  0.00  0.00    -0.201 F 
BRANCH  27  29
ATOM     29  S1  UNL     1     -19.928  22.148 -20.649  0.00  0.00    +0.148 S 
ATOM     30  O4  UNL     1     -18.748  22.545 -19.917  0.00  0.00    -0.135 OA
ATOM     31  O5  UNL     1     -20.252  20.749 -20.844  0.00  0.00    -0.135 OA
BRANCH  29  32
ATOM     32  N5  UNL     1     -19.874  22.875 -22.180  0.00  0.00    -0.061 NA
ATOM     33  C21 UNL     1     -18.897  23.962 -22.224  0.00  0.00    +0.138 C 
ENDBRANCH  29  32
ENDBRANCH  27  29
ENDBRANCH  20  21
ENDBRANCH   3  20
TORSDOF 6
ENDMDL
