MODEL 1
REMARK VINA RESULT:    -7.246      0.000      0.000
REMARK INTER + INTRA:          -8.810
REMARK INTER:                  -8.517
REMARK INTRA:                  -0.293
REMARK UNBOUND:                -0.293
REMARK  Name = /tmp/tmpg1a1oh2f/5V90_candidate_0077.pdb
REMARK  3 active torsions:
REMARK  status: ('A' for Active; 'I' for Inactive)
REMARK    1  A    between atoms: C3_3  and  C10_18
REMARK    2  A    between atoms: C4_5  and  N1_6
REMARK    3  A    between atoms: C6_8  and  C9_14
REMARK                            x       y       z     vdW  Elec       q    Type
REMARK                         _______ _______ _______ _____ _____    ______ ____
ROOT
ATOM      1  N1  UNL     1     -21.903  12.698 -18.330  0.00  0.00    -0.256 N 
ATOM      2  C5  UNL     1     -21.011  11.694 -18.054  0.00  0.00    +0.091 A 
ATOM      3  C6  UNL     1     -19.751  11.929 -17.686  0.00  0.00    +0.146 A 
ATOM      4  C7  UNL     1     -19.297  13.320 -17.577  0.00  0.00    +0.288 A 
ATOM      5  O2  UNL     1     -18.155  13.592 -17.228  0.00  0.00    -0.265 OA
ATOM      6  N2  UNL     1     -20.238  14.275 -17.899  0.00  0.00    -0.153 NA
ATOM      7  C8  UNL     1     -21.543  14.038 -18.292  0.00  0.00    +0.355 A 
ATOM      8  O3  UNL     1     -22.324  14.939 -18.589  0.00  0.00    -0.244 OA
ENDROOT
BRANCH   1  13
ATOM      9  C1  UNL     1     -23.300  11.266 -19.759  0.00  0.00    +0.089 C 
ATOM     10  C2  UNL     1     -24.059  10.183 -19.042  0.00  0.00    +0.186 C 
ATOM     11  C3  UNL     1     -24.887  10.951 -18.040  0.00  0.00    +0.180 C 
ATOM     12  O1  UNL     1     -24.063  12.051 -17.631  0.00  0.00    -0.332 OA
ATOM     13  C4  UNL     1     -23.250  12.401 -18.755  0.00  0.00    +0.211 C 
ATOM     14  O5  UNL     1     -24.884   9.506 -19.970  0.00  0.00    -0.220 OA
BRANCH  11  15
ATOM     15  C10 UNL     1     -25.245  10.129 -16.822  0.00  0.00    +0.214 C 
ATOM     16  O4  UNL     1     -24.075   9.613 -16.210  0.00  0.00    -0.218 OA
ENDBRANCH  11  15
ENDBRANCH   1  13
BRANCH   3  17
ATOM     17  C9  UNL     1     -18.765  10.879 -17.378  0.00  0.00    +0.424 C 
ATOM     18  F1  UNL     1     -17.902  10.661 -18.401  0.00  0.00    -0.166 F 
ATOM     19  F2  UNL     1     -19.367   9.681 -17.138  0.00  0.00    -0.166 F 
ATOM     20  F3  UNL     1     -18.032  11.157 -16.272  0.00  0.00    -0.166 F 
ENDBRANCH   3  17
TORSDOF 3
ENDMDL
