MODEL 1
REMARK VINA RESULT:    -7.121      0.000      0.000
REMARK INTER + INTRA:         -16.613
REMARK INTER:                 -12.532
REMARK INTRA:                  -4.081
REMARK UNBOUND:                -4.081
REMARK  Name = /tmp/tmppom6rzu8/5V90_candidate_0042.pdb
REMARK  13 active torsions:
REMARK  status: ('A' for Active; 'I' for Inactive)
REMARK    1  A    between atoms: C10_11  and  O11_52
REMARK    2  A    between atoms: C12_13  and  O8_41
REMARK    3  A    between atoms: C18_19  and  O2_20
REMARK    4  A    between atoms: O2_20  and  C19_21
REMARK    5  A    between atoms: C19_21  and  C20_23
REMARK    6  A    between atoms: C20_23  and  C21_24
REMARK    7  A    between atoms: C21_24  and  C22_25
REMARK    8  A    between atoms: C21_24  and  N1_31
REMARK    9  A    between atoms: C28_32  and  O5_34
REMARK   10  A    between atoms: O5_34  and  C29_35
REMARK   11  A    between atoms: O8_41  and  C33_42
REMARK   12  A    between atoms: C33_42  and  C34_44
REMARK   13  A    between atoms: O11_52  and  C41_53
REMARK                            x       y       z     vdW  Elec       q    Type
REMARK                         _______ _______ _______ _____ _____    ______ ____
ROOT
ATOM      1  C1  UNL     1     -18.620   2.398 -21.232  0.00  0.00    +0.029 C 
ATOM      2  C2  UNL     1     -17.996   1.212 -20.579  0.00  0.00    -0.010 C 
ATOM      3  C3  UNL     1     -18.587  -0.003 -20.546  0.00  0.00    -0.010 C 
ATOM      4  C4  UNL     1     -20.014  -0.193 -20.974  0.00  0.00    +0.227 C 
ATOM      5  C5  UNL     1     -20.857  -0.576 -19.740  0.00  0.00    +0.186 C 
ATOM      6  O1  UNL     1     -21.406  -1.677 -19.656  0.00  0.00    -0.293 OA
ATOM      7  C6  UNL     1     -20.966   0.450 -18.598  0.00  0.00    +0.089 C 
ATOM      8  C7  UNL     1     -21.457   1.757 -19.215  0.00  0.00    +0.161 C 
ATOM      9  C8  UNL     1     -21.748   2.873 -18.245  0.00  0.00    +0.067 C 
ATOM     10  C9  UNL     1     -20.816   2.888 -17.068  0.00  0.00    +0.157 C 
ATOM     11  C10 UNL     1     -19.617   1.919 -16.949  0.00  0.00    +0.191 C 
ATOM     12  C11 UNL     1     -19.628   0.727 -17.904  0.00  0.00    +0.093 C 
ATOM     13  C12 UNL     1     -18.708  -0.439 -17.538  0.00  0.00    +0.201 C 
ATOM     14  C13 UNL     1     -17.451  -0.613 -18.449  0.00  0.00    +0.170 C 
ATOM     15  C14 UNL     1     -17.842  -1.136 -19.851  0.00  0.00    +0.047 C 
ATOM     16  C15 UNL     1     -16.607  -1.490 -20.677  0.00  0.00    +0.007 C 
ATOM     17  C16 UNL     1     -18.592  -2.453 -19.734  0.00  0.00    +0.007 C 
ATOM     18  C17 UNL     1     -16.637   0.686 -18.531  0.00  0.00    +0.082 C 
ATOM     19  C18 UNL     1     -16.667   1.381 -19.893  0.00  0.00    +0.189 C 
ATOM     20  O7  UNL     1     -16.586  -1.571 -17.830  0.00  0.00    -0.222 OA
ATOM     21  C40 UNL     1     -20.227   1.631 -15.559  0.00  0.00    +0.185 C 
ATOM     22  O10 UNL     1     -21.461   2.296 -15.917  0.00  0.00    -0.349 OA
ATOM     23  O13 UNL     1     -22.613   1.566 -20.009  0.00  0.00    -0.223 OA
ATOM     24  C43 UNL     1     -21.978  -0.102 -17.602  0.00  0.00    +0.010 C 
ATOM     25  O14 UNL     1     -20.069  -1.111 -22.036  0.00  0.00    -0.211 OA
ENDROOT
BRANCH  19  26
ATOM     26  O2  UNL     1     -16.342   2.755 -19.731  0.00  0.00    -0.446 OA
BRANCH  26  27
ATOM     27  C19 UNL     1     -15.137   3.030 -20.308  0.00  0.00    +0.350 C 
ATOM     28  O3  UNL     1     -14.988   3.333 -21.485  0.00  0.00    -0.247 OA
BRANCH  27  29
ATOM     29  C20 UNL     1     -14.003   2.942 -19.316  0.00  0.00    +0.274 C 
ATOM     30  O6  UNL     1     -13.022   3.900 -19.697  0.00  0.00    -0.209 OA
BRANCH  29  31
ATOM     31  C21 UNL     1     -13.414   1.539 -19.359  0.00  0.00    +0.162 C 
BRANCH  31  32
ATOM     32  C22 UNL     1     -13.229   0.865 -18.034  0.00  0.00    +0.001 A 
ATOM     33  C23 UNL     1     -13.062   1.592 -16.853  0.00  0.00    -0.003 A 
ATOM     34  C24 UNL     1     -12.901   0.934 -15.637  0.00  0.00    -0.000 A 
ATOM     35  C25 UNL     1     -12.907  -0.458 -15.594  0.00  0.00    -0.000 A 
ATOM     36  C26 UNL     1     -13.070  -1.191 -16.766  0.00  0.00    -0.000 A 
ATOM     37  C27 UNL     1     -13.230  -0.531 -17.982  0.00  0.00    -0.003 A 
ENDBRANCH  31  32
BRANCH  31  38
ATOM     38  N1  UNL     1     -12.257   1.388 -20.210  0.00  0.00    -0.163 NA
ATOM     39  C28 UNL     1     -12.333   0.830 -21.459  0.00  0.00    +0.421 C 
ATOM     40  O4  UNL     1     -13.361   0.389 -21.958  0.00  0.00    -0.225 OA
BRANCH  39  41
ATOM     41  O5  UNL     1     -11.111   0.835 -22.049  0.00  0.00    -0.441 OA
BRANCH  41  42
ATOM     42  C29 UNL     1     -10.518  -0.430 -22.383  0.00  0.00    +0.138 C 
ATOM     43  C30 UNL     1      -9.028  -0.276 -22.173  0.00  0.00    +0.044 C 
ATOM     44  C31 UNL     1     -10.755  -0.782 -23.833  0.00  0.00    +0.044 C 
ATOM     45  C32 UNL     1     -11.010  -1.527 -21.466  0.00  0.00    +0.044 C 
ENDBRANCH  41  42
ENDBRANCH  39  41
ENDBRANCH  31  38
ENDBRANCH  29  31
ENDBRANCH  27  29
ENDBRANCH  26  27
ENDBRANCH  19  26
BRANCH  13  46
ATOM     46  O8  UNL     1     -18.312  -0.364 -16.167  0.00  0.00    -0.446 OA
BRANCH  46  47
ATOM     47  C33 UNL     1     -18.677  -1.487 -15.495  0.00  0.00    +0.341 C 
ATOM     48  O9  UNL     1     -19.498  -2.301 -15.880  0.00  0.00    -0.245 OA
BRANCH  47  49
ATOM     49  C34 UNL     1     -17.953  -1.576 -14.217  0.00  0.00    +0.076 A 
ATOM     50  C35 UNL     1     -16.559  -1.555 -14.165  0.00  0.00    +0.006 A 
ATOM     51  C36 UNL     1     -15.910  -1.639 -12.936  0.00  0.00    +0.000 A 
ATOM     52  C37 UNL     1     -16.653  -1.743 -11.762  0.00  0.00    +0.000 A 
ATOM     53  C38 UNL     1     -18.044  -1.764 -11.815  0.00  0.00    +0.000 A 
ATOM     54  C39 UNL     1     -18.697  -1.681 -13.042  0.00  0.00    +0.006 A 
ENDBRANCH  47  49
ENDBRANCH  46  47
ENDBRANCH  13  46
BRANCH  11  55
ATOM     55  O11 UNL     1     -18.293   2.515 -17.001  0.00  0.00    -0.451 OA
BRANCH  55  56
ATOM     56  C41 UNL     1     -17.868   3.208 -15.911  0.00  0.00    +0.317 C 
ATOM     57  O12 UNL     1     -18.250   4.313 -15.564  0.00  0.00    -0.250 OA
ATOM     58  C42 UNL     1     -16.848   2.406 -15.176  0.00  0.00    +0.121 C 
ENDBRANCH  55  56
ENDBRANCH  11  55
TORSDOF 13
ENDMDL
