MODEL 1
REMARK VINA RESULT:    -7.636      0.000      0.000
REMARK INTER + INTRA:         -10.350
REMARK INTER:                  -8.976
REMARK INTRA:                  -1.374
REMARK UNBOUND:                -1.374
REMARK  Name = /tmp/tmpur0x8haw/5V90_candidate_0026.pdb
REMARK  3 active torsions:
REMARK  status: ('A' for Active; 'I' for Inactive)
REMARK    1  A    between atoms: C2_2  and  C3_3
REMARK    2  A    between atoms: C12_16  and  C17_23
REMARK    3  A    between atoms: C19_25  and  C25_34
REMARK                            x       y       z     vdW  Elec       q    Type
REMARK                         _______ _______ _______ _____ _____    ______ ____
ROOT
ATOM      1  C3  UNL     1      -7.781  32.114 -23.597  0.00  0.00    +0.249 C 
ATOM      2  O1  UNL     1      -7.029  32.391 -24.524  0.00  0.00    -0.270 OA
ATOM      3  N1  UNL     1      -7.952  30.833 -23.121  0.00  0.00    -0.273 N 
ATOM      4  C4  UNL     1      -7.206  29.769 -23.765  0.00  0.00    +0.115 C 
ATOM      5  C5  UNL     1      -7.893  28.414 -23.684  0.00  0.00    +0.115 C 
ATOM      6  N2  UNL     1      -8.395  28.076 -22.361  0.00  0.00    -0.274 N 
ATOM      7  C6  UNL     1      -8.549  29.142 -21.380  0.00  0.00    +0.099 C 
ATOM      8  C7  UNL     1      -8.843  30.495 -22.023  0.00  0.00    +0.114 C 
ATOM      9  C8  UNL     1      -7.336  29.260 -20.479  0.00  0.00    +0.069 C 
ATOM     10  C9  UNL     1      -7.482  28.379 -19.262  0.00  0.00    +0.207 C 
ATOM     11  O2  UNL     1      -7.389  27.014 -19.658  0.00  0.00    -0.474 OA
ATOM     12  C10 UNL     1      -8.660  26.498 -19.654  0.00  0.00    +0.153 A 
ATOM     13  C11 UNL     1      -9.248  26.034 -18.461  0.00  0.00    +0.094 A 
ATOM     14  C12 UNL     1     -10.529  25.443 -18.475  0.00  0.00    +0.041 A 
ATOM     15  C13 UNL     1     -11.177  25.318 -19.715  0.00  0.00    +0.141 A 
ATOM     16  C14 UNL     1     -10.595  25.754 -20.899  0.00  0.00    +0.037 A 
ATOM     17  C15 UNL     1      -9.340  26.355 -20.867  0.00  0.00    +0.091 A 
ATOM     18  C16 UNL     1      -8.779  26.758 -22.170  0.00  0.00    +0.252 C 
ATOM     19  O3  UNL     1      -8.731  25.918 -23.064  0.00  0.00    -0.270 OA
ATOM     20  F1  UNL     1     -12.398  24.764 -19.770  0.00  0.00    -0.204 F 
ATOM     21 CL1  UNL     1      -8.379  26.183 -16.963  0.00  0.00    -0.079 Cl
ENDROOT
BRANCH  14  22
ATOM     22  C17 UNL     1     -11.208  24.983 -17.258  0.00  0.00    +0.004 A 
ATOM     23  C18 UNL     1     -11.957  25.881 -16.429  0.00  0.00    +0.020 A 
ATOM     24  C19 UNL     1     -12.236  27.302 -16.514  0.00  0.00    +0.092 A 
ATOM     25  C20 UNL     1     -13.019  27.774 -15.482  0.00  0.00    +0.128 A 
ATOM     26  S1  UNL     1     -13.432  26.531 -14.396  0.00  0.00    -0.066 S 
ATOM     27  C21 UNL     1     -12.571  25.340 -15.289  0.00  0.00    +0.059 A 
ATOM     28  C22 UNL     1     -12.459  23.975 -14.967  0.00  0.00    +0.146 A 
ATOM     29  C23 UNL     1     -11.727  23.123 -15.779  0.00  0.00    +0.030 A 
ATOM     30  C24 UNL     1     -11.112  23.624 -16.909  0.00  0.00    +0.002 A 
ATOM     31  F2  UNL     1     -13.055  23.479 -13.873  0.00  0.00    -0.204 F 
ATOM     32  N3  UNL     1     -13.450  29.045 -15.281  0.00  0.00    -0.120 NA
BRANCH  24  33
ATOM     33  C25 UNL     1     -11.769  28.174 -17.550  0.00  0.00    +0.102 C 
ATOM     34  N4  UNL     1     -11.423  28.886 -18.399  0.00  0.00    -0.191 NA
ENDBRANCH  24  33
ENDBRANCH  14  22
BRANCH   1  36
ATOM     35  C1  UNL     1      -9.511  33.800 -23.587  0.00  0.00    +0.005 C 
ATOM     36  C2  UNL     1      -8.587  33.138 -22.889  0.00  0.00    +0.058 C 
ENDBRANCH   1  36
TORSDOF 3
ENDMDL
