MODEL 1
REMARK VINA RESULT:    -8.270      0.000      0.000
REMARK INTER + INTRA:         -11.856
REMARK INTER:                 -10.687
REMARK INTRA:                  -1.169
REMARK UNBOUND:                -1.169
REMARK  Name = /tmp/tmpw78gxw7i/5V90_candidate_0029.pdb
REMARK  5 active torsions:
REMARK  status: ('A' for Active; 'I' for Inactive)
REMARK    1  A    between atoms: C2_2  and  C3_3
REMARK    2  A    between atoms: C2_2  and  O1_12
REMARK    3  A    between atoms: O1_12  and  C9_13
REMARK    4  A    between atoms: C12_17  and  C14_19
REMARK    5  A    between atoms: N2_21  and  C17_24
REMARK                            x       y       z     vdW  Elec       q    Type
REMARK                         _______ _______ _______ _____ _____    ______ ____
ROOT
ATOM      1  C9  UNL     1      -0.017  18.632 -23.738  0.00  0.00    +0.173 A 
ATOM      2  C10 UNL     1      -1.119  18.745 -22.883  0.00  0.00    +0.204 A 
ATOM      3  N1  UNL     1      -1.900  17.679 -22.570  0.00  0.00    -0.223 NA
ATOM      4  C11 UNL     1      -1.578  16.484 -23.115  0.00  0.00    +0.101 A 
ATOM      5  C12 UNL     1      -0.507  16.275 -23.966  0.00  0.00    +0.025 A 
ATOM      6  C13 UNL     1       0.277  17.377 -24.271  0.00  0.00    +0.042 A 
ATOM      7  N5  UNL     1      -1.436  20.007 -22.331  0.00  0.00    -0.104 NA
ENDROOT
BRANCH   5   8
ATOM      8  C14 UNL     1      -0.205  14.979 -24.520  0.00  0.00    +0.041 A 
ATOM      9  C15 UNL     1      -1.078  14.211 -25.261  0.00  0.00    +0.097 A 
ATOM     10  N2  UNL     1      -0.397  13.073 -25.578  0.00  0.00    -0.251 N 
ATOM     11  N3  UNL     1       0.856  13.034 -25.095  0.00  0.00    -0.168 NA
ATOM     12  C16 UNL     1       0.973  14.201 -24.455  0.00  0.00    +0.122 A 
BRANCH  10  13
ATOM     13  C17 UNL     1      -0.936  11.983 -26.355  0.00  0.00    +0.108 C 
ATOM     14  C18 UNL     1      -1.399  12.442 -27.722  0.00  0.00    +0.043 C 
ATOM     15  C19 UNL     1      -1.986  11.273 -28.484  0.00  0.00    +0.091 C 
ATOM     16  N4  UNL     1      -3.089  10.682 -27.742  0.00  0.00    -0.218 NA
ATOM     17  C20 UNL     1      -2.593  10.145 -26.483  0.00  0.00    +0.091 C 
ATOM     18  C21 UNL     1      -2.037  11.253 -25.615  0.00  0.00    +0.043 C 
ENDBRANCH  10  13
ENDBRANCH   5   8
BRANCH   1  19
ATOM     19  O1  UNL     1       0.728  19.752 -24.010  0.00  0.00    -0.472 OA
BRANCH  19  21
ATOM     20  C1  UNL     1       2.109  21.116 -22.581  0.00  0.00    +0.052 C 
ATOM     21  C2  UNL     1       1.950  19.787 -23.283  0.00  0.00    +0.190 C 
BRANCH  21  22
ATOM     22  C3  UNL     1       3.112  19.453 -24.172  0.00  0.00    +0.041 A 
ATOM     23  C4  UNL     1       3.493  20.235 -25.275  0.00  0.00    +0.058 A 
ATOM     24  C5  UNL     1       4.576  19.867 -26.078  0.00  0.00    +0.014 A 
ATOM     25  C6  UNL     1       5.298  18.714 -25.801  0.00  0.00    +0.031 A 
ATOM     26  C7  UNL     1       4.934  17.931 -24.714  0.00  0.00    +0.150 A 
ATOM     27  C8  UNL     1       3.853  18.289 -23.902  0.00  0.00    +0.085 A 
ATOM     28 CL1  UNL     1       3.453  17.276 -22.559  0.00  0.00    -0.080 Cl
ATOM     29  F1  UNL     1       5.642  16.821 -24.456  0.00  0.00    -0.203 F 
ATOM     30 CL2  UNL     1       2.675  21.686 -25.720  0.00  0.00    -0.082 Cl
ENDBRANCH  21  22
ENDBRANCH  19  21
ENDBRANCH   1  19
TORSDOF 5
ENDMDL
