MODEL 1
REMARK VINA RESULT:    -7.380      0.000      0.000
REMARK INTER + INTRA:          -9.964
REMARK INTER:                  -8.675
REMARK INTRA:                  -1.289
REMARK UNBOUND:                -1.289
REMARK  Name = /tmp/tmprs_7eiw4/5V90_candidate_0069.pdb
REMARK  3 active torsions:
REMARK  status: ('A' for Active; 'I' for Inactive)
REMARK    1  A    between atoms: C2_2  and  C3_3
REMARK    2  A    between atoms: C12_16  and  C17_23
REMARK    3  A    between atoms: C19_25  and  C25_34
REMARK                            x       y       z     vdW  Elec       q    Type
REMARK                         _______ _______ _______ _____ _____    ______ ____
ROOT
ATOM      1  C3  UNL     1       5.793   9.519 -21.939  0.00  0.00    +0.249 C 
ATOM      2  O1  UNL     1       6.544   8.651 -22.369  0.00  0.00    -0.270 OA
ATOM      3  N1  UNL     1       5.373  10.593 -22.692  0.00  0.00    -0.273 N 
ATOM      4  C4  UNL     1       5.844  10.682 -24.059  0.00  0.00    +0.115 C 
ATOM      5  C5  UNL     1       5.942  12.110 -24.578  0.00  0.00    +0.115 C 
ATOM      6  N2  UNL     1       4.799  12.955 -24.270  0.00  0.00    -0.274 N 
ATOM      7  C6  UNL     1       3.842  12.478 -23.286  0.00  0.00    +0.099 C 
ATOM      8  C7  UNL     1       4.466  11.614 -22.197  0.00  0.00    +0.114 C 
ATOM      9  C8  UNL     1       2.725  11.727 -23.983  0.00  0.00    +0.069 C 
ATOM     10  C9  UNL     1       1.957  12.705 -24.841  0.00  0.00    +0.207 C 
ATOM     11  O2  UNL     1       1.626  13.803 -24.002  0.00  0.00    -0.474 OA
ATOM     12  C10 UNL     1       2.272  14.964 -24.339  0.00  0.00    +0.153 A 
ATOM     13  C11 UNL     1       1.512  16.141 -24.104  0.00  0.00    +0.094 A 
ATOM     14  C12 UNL     1       2.003  17.424 -24.420  0.00  0.00    +0.041 A 
ATOM     15  C13 UNL     1       3.289  17.500 -24.954  0.00  0.00    +0.141 A 
ATOM     16  C14 UNL     1       4.056  16.361 -25.159  0.00  0.00    +0.037 A 
ATOM     17  C15 UNL     1       3.576  15.083 -24.845  0.00  0.00    +0.091 A 
ATOM     18  C16 UNL     1       4.609  14.041 -25.112  0.00  0.00    +0.252 C 
ATOM     19  O3  UNL     1       5.354  14.219 -26.077  0.00  0.00    -0.270 OA
ATOM     20  F1  UNL     1       3.809  18.692 -25.281  0.00  0.00    -0.204 F 
ATOM     21 CL1  UNL     1      -0.093  15.996 -23.429  0.00  0.00    -0.079 Cl
ENDROOT
BRANCH  14  22
ATOM     22  C17 UNL     1       1.235  18.656 -24.210  0.00  0.00    +0.004 A 
ATOM     23  C18 UNL     1       1.210  19.313 -22.936  0.00  0.00    +0.020 A 
ATOM     24  C19 UNL     1       1.840  19.019 -21.662  0.00  0.00    +0.092 A 
ATOM     25  C20 UNL     1       1.542  19.935 -20.676  0.00  0.00    +0.128 A 
ATOM     26  S1  UNL     1       0.508  21.157 -21.252  0.00  0.00    -0.066 S 
ATOM     27  C21 UNL     1       0.442  20.482 -22.832  0.00  0.00    +0.059 A 
ATOM     28  C22 UNL     1      -0.277  20.994 -23.929  0.00  0.00    +0.146 A 
ATOM     29  C23 UNL     1      -0.243  20.342 -25.152  0.00  0.00    +0.030 A 
ATOM     30  C24 UNL     1       0.504  19.188 -25.287  0.00  0.00    +0.002 A 
ATOM     31  F2  UNL     1      -1.005  22.113 -23.808  0.00  0.00    -0.204 F 
ATOM     32  N3  UNL     1       1.973  19.937 -19.388  0.00  0.00    -0.120 NA
BRANCH  24  33
ATOM     33  C25 UNL     1       2.702  17.903 -21.404  0.00  0.00    +0.102 C 
ATOM     34  N4  UNL     1       3.388  17.001 -21.154  0.00  0.00    -0.191 NA
ENDBRANCH  24  33
ENDBRANCH  14  22
BRANCH   1  36
ATOM     35  C1  UNL     1       6.125   9.379 -19.551  0.00  0.00    +0.005 C 
ATOM     36  C2  UNL     1       5.258   9.500 -20.557  0.00  0.00    +0.058 C 
ENDBRANCH   1  36
TORSDOF 3
ENDMDL
