MODEL 1
REMARK VINA RESULT:    -7.766      0.000      0.000
REMARK INTER + INTRA:         -14.926
REMARK INTER:                 -13.214
REMARK INTRA:                  -1.712
REMARK UNBOUND:                -1.712
REMARK  Name = /tmp/tmp0hn1tt5_/5V90_candidate_0050.pdb
REMARK  12 active torsions:
REMARK  status: ('A' for Active; 'I' for Inactive)
REMARK    1  A    between atoms: C2_2  and  N1_3
REMARK    2  A    between atoms: C14_17  and  N6_46
REMARK    3  A    between atoms: C25_33  and  C26_34
REMARK    4  A    between atoms: C27_35  and  C31_40
REMARK    5  A    between atoms: C31_40  and  O5_42
REMARK    6  A    between atoms: C36_47  and  C37_49
REMARK    7  A    between atoms: C37_49  and  C38_50
REMARK    8  A    between atoms: C37_49  and  N7_53
REMARK    9  A    between atoms: C42_55  and  C43_57
REMARK   10  A    between atoms: C48_63  and  C49_65
REMARK   11  A    between atoms: C50_66  and  C51_67
REMARK   12  A    between atoms: C51_67  and  N9_70
REMARK                            x       y       z     vdW  Elec       q    Type
REMARK                         _______ _______ _______ _____ _____    ______ ____
ROOT
ATOM      1  N1  UNL     1     -27.923  16.576 -13.924  0.00  0.00    -0.327 N 
ATOM      2  C3  UNL     1     -26.732  16.561 -14.606  0.00  0.00    +0.060 A 
ATOM      3  C4  UNL     1     -26.288  17.880 -14.685  0.00  0.00    +0.014 A 
ATOM      4  C5  UNL     1     -25.081  18.140 -15.371  0.00  0.00    +0.016 A 
ATOM      5  C6  UNL     1     -24.325  17.098 -15.936  0.00  0.00    +0.048 A 
ATOM      6  C7  UNL     1     -24.847  15.802 -15.848  0.00  0.00    +0.016 A 
ATOM      7  C8  UNL     1     -26.036  15.496 -15.184  0.00  0.00    +0.018 A 
ATOM      8  N2  UNL     1     -23.125  17.343 -16.640  0.00  0.00    -0.303 N 
ATOM      9  C9  UNL     1     -22.255  16.160 -16.665  0.00  0.00    +0.123 C 
ATOM     10  C10 UNL     1     -20.967  16.447 -17.429  0.00  0.00    +0.163 C 
ATOM     11  O1  UNL     1     -20.287  17.590 -16.896  0.00  0.00    -0.353 OA
ATOM     12  C11 UNL     1     -21.124  18.748 -16.976  0.00  0.00    +0.137 C 
ATOM     13  C12 UNL     1     -22.430  18.551 -16.203  0.00  0.00    +0.121 C 
ATOM     14  C13 UNL     1     -21.302  19.142 -18.431  0.00  0.00    +0.062 C 
ATOM     15  C14 UNL     1     -22.207  20.328 -18.682  0.00  0.00    +0.175 C 
ATOM     16  C15 UNL     1     -21.838  21.472 -17.742  0.00  0.00    +0.260 C 
ATOM     17  O2  UNL     1     -20.693  21.923 -17.688  0.00  0.00    -0.272 OA
ATOM     18  N3  UNL     1     -22.902  21.928 -16.974  0.00  0.00    -0.205 N 
ATOM     19  C16 UNL     1     -24.240  21.385 -17.097  0.00  0.00    +0.113 C 
ATOM     20  C17 UNL     1     -25.284  22.479 -17.055  0.00  0.00    +0.025 C 
ATOM     21  C18 UNL     1     -24.935  23.621 -16.124  0.00  0.00    +0.033 C 
ATOM     22  C19 UNL     1     -23.744  23.364 -15.231  0.00  0.00    +0.192 C 
ATOM     23  N4  UNL     1     -22.592  22.729 -15.860  0.00  0.00    -0.118 NA
ATOM     24  C20 UNL     1     -24.094  22.676 -13.935  0.00  0.00    +0.335 C 
ATOM     25  O3  UNL     1     -23.900  23.165 -12.829  0.00  0.00    -0.248 OA
ATOM     26  O4  UNL     1     -24.673  21.461 -14.154  0.00  0.00    -0.448 OA
ATOM     27  C21 UNL     1     -25.014  20.809 -12.933  0.00  0.00    +0.209 C 
ATOM     28  C22 UNL     1     -26.517  20.789 -12.722  0.00  0.00    +0.045 C 
ATOM     29  C23 UNL     1     -27.241  20.172 -13.905  0.00  0.00    +0.031 C 
ATOM     30  C24 UNL     1     -27.256  18.691 -14.013  0.00  0.00    -0.005 A 
ATOM     31  C25 UNL     1     -28.247  17.849 -13.517  0.00  0.00    +0.057 A 
ATOM     32  C34 UNL     1     -26.811  20.086 -11.418  0.00  0.00    +0.004 C 
ATOM     33  C35 UNL     1     -27.034  22.208 -12.583  0.00  0.00    +0.004 C 
ENDROOT
BRANCH  31  34
ATOM     34  C26 UNL     1     -29.462  18.180 -12.773  0.00  0.00    +0.031 A 
ATOM     35  C27 UNL     1     -30.641  18.632 -13.375  0.00  0.00    +0.087 A 
ATOM     36  N5  UNL     1     -31.752  18.962 -12.657  0.00  0.00    -0.246 NA
ATOM     37  C28 UNL     1     -31.692  18.815 -11.314  0.00  0.00    +0.099 A 
ATOM     38  C29 UNL     1     -30.581  18.358 -10.634  0.00  0.00    +0.021 A 
ATOM     39  C30 UNL     1     -29.457  18.042 -11.385  0.00  0.00    +0.004 A 
BRANCH  35  40
ATOM     40  C31 UNL     1     -30.727  18.754 -14.875  0.00  0.00    +0.155 C 
ATOM     41  C32 UNL     1     -31.469  19.994 -15.319  0.00  0.00    +0.039 C 
BRANCH  40  42
ATOM     42  O5  UNL     1     -31.167  17.585 -15.552  0.00  0.00    -0.348 OA
ATOM     43  C33 UNL     1     -30.280  17.250 -16.614  0.00  0.00    +0.175 C 
ENDBRANCH  40  42
ENDBRANCH  35  40
ENDBRANCH  31  34
BRANCH  15  44
ATOM     44  N6  UNL     1     -21.974  20.808 -20.025  0.00  0.00    -0.196 NA
ATOM     45  C36 UNL     1     -23.037  21.115 -20.845  0.00  0.00    +0.260 C 
ATOM     46  O6  UNL     1     -24.211  20.923 -20.536  0.00  0.00    -0.272 OA
BRANCH  45  47
ATOM     47  C37 UNL     1     -22.580  21.803 -22.131  0.00  0.00    +0.154 C 
BRANCH  47  48
ATOM     48  N7  UNL     1     -23.606  22.109 -23.108  0.00  0.00    -0.269 N 
ATOM     49  C41 UNL     1     -24.472  23.236 -22.855  0.00  0.00    +0.115 C 
ATOM     50  C42 UNL     1     -23.914  21.272 -24.166  0.00  0.00    +0.256 C 
ATOM     51  O7  UNL     1     -24.852  21.515 -24.928  0.00  0.00    -0.272 OA
BRANCH  50  52
ATOM     52  C43 UNL     1     -22.990  20.069 -24.393  0.00  0.00    +0.205 C 
ATOM     53  C44 UNL     1     -23.594  19.149 -25.441  0.00  0.00    +0.063 C 
ATOM     54  C45 UNL     1     -23.180  19.551 -26.840  0.00  0.00    +0.098 C 
ATOM     55  N8  UNL     1     -21.736  19.520 -26.967  0.00  0.00    -0.269 N 
ATOM     56  C46 UNL     1     -20.925  19.710 -25.787  0.00  0.00    +0.098 C 
ATOM     57  C47 UNL     1     -21.619  20.596 -24.781  0.00  0.00    +0.063 C 
ATOM     58  C48 UNL     1     -21.094  19.254 -28.159  0.00  0.00    +0.292 C 
ATOM     59  O8  UNL     1     -19.875  19.204 -28.273  0.00  0.00    -0.260 OA
ATOM     60  F1  UNL     1     -22.846  19.331 -23.248  0.00  0.00    -0.231 F 
BRANCH  58  61
ATOM     61  C49 UNL     1     -21.911  19.011 -29.328  0.00  0.00    -0.006 C 
ATOM     62  C50 UNL     1     -22.582  18.774 -30.296  0.00  0.00    -0.069 C 
BRANCH  62  63
ATOM     63  C51 UNL     1     -23.391  18.447 -31.481  0.00  0.00    +0.100 C 
ATOM     64  C52 UNL     1     -24.236  19.653 -31.853  0.00  0.00    +0.029 C 
ATOM     65  C53 UNL     1     -24.358  17.329 -31.127  0.00  0.00    +0.029 C 
BRANCH  63  66
ATOM     66  N9  UNL     1     -22.600  18.041 -32.646  0.00  0.00    -0.263 NA
ATOM     67  C54 UNL     1     -22.177  19.194 -33.428  0.00  0.00    +0.090 C 
ATOM     68  C55 UNL     1     -23.368  17.186 -33.540  0.00  0.00    +0.090 C 
ENDBRANCH  63  66
ENDBRANCH  62  63
ENDBRANCH  58  61
ENDBRANCH  50  52
ENDBRANCH  47  48
BRANCH  47  69
ATOM     69  C38 UNL     1     -21.608  22.948 -21.929  0.00  0.00    +0.027 C 
ATOM     70  C39 UNL     1     -20.178  22.490 -22.048  0.00  0.00    +0.002 C 
ATOM     71  C40 UNL     1     -21.819  23.712 -20.644  0.00  0.00    +0.002 C 
ENDBRANCH  47  69
ENDBRANCH  45  47
ENDBRANCH  15  44
BRANCH   1  73
ATOM     72  C1  UNL     1     -28.263  14.677 -12.439  0.00  0.00    +0.026 C 
ATOM     73  C2  UNL     1     -28.720  15.385 -13.692  0.00  0.00    +0.106 C 
ENDBRANCH   1  73
TORSDOF 12
ENDMDL
