MODEL 1
REMARK VINA RESULT:    -8.456      0.000      0.000
REMARK INTER + INTRA:         -13.654
REMARK INTER:                 -11.422
REMARK INTRA:                  -2.232
REMARK UNBOUND:                -2.232
REMARK  Name = /tmp/tmp3mn4xyxd/5V90_candidate_0011.pdb
REMARK  6 active torsions:
REMARK  status: ('A' for Active; 'I' for Inactive)
REMARK    1  A    between atoms: C3_3  and  C8_10
REMARK    2  A    between atoms: C8_10  and  O1_11
REMARK    3  A    between atoms: O1_11  and  C9_12
REMARK    4  A    between atoms: C12_16  and  C24_34
REMARK    5  A    between atoms: C13_17  and  C23_30
REMARK    6  A    between atoms: C26_36  and  C32_45
REMARK                            x       y       z     vdW  Elec       q    Type
REMARK                         _______ _______ _______ _____ _____    ______ ____
ROOT
ATOM      1  C9  UNL     1     -24.724  16.631 -15.409  0.00  0.00    +0.321 A 
ATOM      2  N2  UNL     1     -24.301  15.682 -16.246  0.00  0.00    -0.192 NA
ATOM      3  C10 UNL     1     -25.135  14.664 -16.491  0.00  0.00    +0.116 A 
ATOM      4  C11 UNL     1     -24.778  13.651 -17.384  0.00  0.00    +0.158 A 
ATOM      5  C12 UNL     1     -25.612  12.556 -17.701  0.00  0.00    +0.033 A 
ATOM      6  C13 UNL     1     -26.868  12.479 -17.081  0.00  0.00    +0.074 A 
ATOM      7  C14 UNL     1     -27.230  13.486 -16.184  0.00  0.00    +0.008 A 
ATOM      8  C15 UNL     1     -26.383  14.568 -15.872  0.00  0.00    +0.052 A 
ATOM      9  C16 UNL     1     -26.724  15.596 -14.978  0.00  0.00    +0.138 A 
ATOM     10  N3  UNL     1     -25.894  16.632 -14.759  0.00  0.00    -0.179 NA
ATOM     11  N4  UNL     1     -27.969  15.583 -14.310  0.00  0.00    -0.290 N 
ATOM     12  C17 UNL     1     -28.209  16.869 -13.628  0.00  0.00    +0.109 C 
ATOM     13  C18 UNL     1     -29.380  16.794 -12.637  0.00  0.00    +0.093 C 
ATOM     14  C19 UNL     1     -30.629  16.260 -13.325  0.00  0.00    +0.021 C 
ATOM     15  C20 UNL     1     -30.526  14.746 -13.195  0.00  0.00    +0.021 C 
ATOM     16  C21 UNL     1     -29.228  14.512 -12.434  0.00  0.00    +0.093 C 
ATOM     17  C22 UNL     1     -28.041  14.423 -13.405  0.00  0.00    +0.109 C 
ATOM     18  N5  UNL     1     -29.100  15.745 -11.639  0.00  0.00    -0.217 NA
ATOM     19  F6  UNL     1     -23.577  13.720 -17.989  0.00  0.00    -0.203 F 
ENDROOT
BRANCH   5  20
ATOM     20  C24 UNL     1     -25.132  11.541 -18.646  0.00  0.00    +0.004 A 
ATOM     21  C25 UNL     1     -25.369  11.657 -20.056  0.00  0.00    +0.020 A 
ATOM     22  C26 UNL     1     -26.080  12.634 -20.860  0.00  0.00    +0.092 A 
ATOM     23  C27 UNL     1     -26.058  12.359 -22.209  0.00  0.00    +0.128 A 
ATOM     24  S1  UNL     1     -25.196  10.930 -22.539  0.00  0.00    -0.066 S 
ATOM     25  C28 UNL     1     -24.836  10.656 -20.881  0.00  0.00    +0.059 A 
ATOM     26  C29 UNL     1     -24.103   9.577 -20.353  0.00  0.00    +0.146 A 
ATOM     27  C30 UNL     1     -23.883   9.482 -18.988  0.00  0.00    +0.030 A 
ATOM     28  C31 UNL     1     -24.390  10.455 -18.150  0.00  0.00    +0.002 A 
ATOM     29  F5  UNL     1     -23.604   8.628 -21.159  0.00  0.00    -0.204 F 
ATOM     30  N6  UNL     1     -26.628  13.077 -23.211  0.00  0.00    -0.120 NA
BRANCH  22  31
ATOM     31  C32 UNL     1     -26.767  13.783 -20.344  0.00  0.00    +0.102 C 
ATOM     32  N7  UNL     1     -27.282  14.740 -19.940  0.00  0.00    -0.191 NA
ENDBRANCH  22  31
ENDBRANCH   5  20
BRANCH   6  33
ATOM     33  C23 UNL     1     -27.848  11.369 -17.342  0.00  0.00    +0.419 C 
ATOM     34  F2  UNL     1     -27.329  10.140 -17.061  0.00  0.00    -0.166 F 
ATOM     35  F3  UNL     1     -28.975  11.483 -16.586  0.00  0.00    -0.166 F 
ATOM     36  F4  UNL     1     -28.276  11.307 -18.633  0.00  0.00    -0.166 F 
ENDBRANCH   6  33
BRANCH   1  37
ATOM     37  O1  UNL     1     -23.825  17.652 -15.197  0.00  0.00    -0.445 OA
BRANCH  37  38
ATOM     38  C8  UNL     1     -23.474  18.217 -16.453  0.00  0.00    +0.223 C 
BRANCH  38  41
ATOM     39  C1  UNL     1     -20.517  16.675 -17.759  0.00  0.00    +0.019 C 
ATOM     40  C2  UNL     1     -21.385  16.852 -16.533  0.00  0.00    +0.020 C 
ATOM     41  C3  UNL     1     -21.962  18.251 -16.628  0.00  0.00    +0.089 C 
ATOM     42  C4  UNL     1     -21.301  19.175 -15.621  0.00  0.00    +0.055 C 
ATOM     43  C5  UNL     1     -21.339  20.517 -16.310  0.00  0.00    +0.178 C 
ATOM     44  C6  UNL     1     -21.225  20.179 -17.787  0.00  0.00    +0.108 C 
ATOM     45  N1  UNL     1     -21.606  18.768 -17.960  0.00  0.00    -0.269 NA
ATOM     46  C7  UNL     1     -20.393  18.055 -18.366  0.00  0.00    +0.072 C 
ATOM     47  F1  UNL     1     -20.253  21.235 -15.922  0.00  0.00    -0.236 F 
ENDBRANCH  38  41
ENDBRANCH  37  38
ENDBRANCH   1  37
TORSDOF 6
ENDMDL
