MODEL 1
REMARK VINA RESULT:    -7.725      0.000      0.000
REMARK INTER + INTRA:         -13.289
REMARK INTER:                 -11.790
REMARK INTRA:                  -1.499
REMARK UNBOUND:                -1.499
REMARK  Name = /tmp/tmp7d_0p5i1/5V90_candidate_0055.pdb
REMARK  9 active torsions:
REMARK  status: ('A' for Active; 'I' for Inactive)
REMARK    1  A    between atoms: C5_5  and  C15_22
REMARK    2  A    between atoms: C7_8  and  C8_10
REMARK    3  A    between atoms: C8_10  and  C9_11
REMARK    4  A    between atoms: C8_10  and  N2_15
REMARK    5  A    between atoms: C13_16  and  C14_18
REMARK    6  A    between atoms: N3_24  and  C16_25
REMARK    7  A    between atoms: C16_25  and  C17_26
REMARK    8  A    between atoms: C16_25  and  C22_33
REMARK    9  A    between atoms: C17_26  and  C18_27
REMARK                            x       y       z     vdW  Elec       q    Type
REMARK                         _______ _______ _______ _____ _____    ______ ____
ROOT
ATOM      1  C1  UNL     1      -8.884  30.228 -15.900  0.00  0.00    +0.000 C 
ATOM      2  C2  UNL     1      -8.741  29.145 -16.910  0.00  0.00    +0.004 C 
ATOM      3  C3  UNL     1     -10.003  28.417 -17.311  0.00  0.00    +0.022 C 
ATOM      4  C4  UNL     1      -9.004  27.734 -16.437  0.00  0.00    +0.029 C 
ATOM      5  C5  UNL     1      -8.465  26.535 -17.171  0.00  0.00    +0.154 C 
ATOM      6  N1  UNL     1      -9.205  26.532 -18.431  0.00  0.00    -0.272 N 
ATOM      7  C6  UNL     1     -10.100  27.664 -18.600  0.00  0.00    +0.094 C 
ATOM      8  C7  UNL     1      -8.848  25.678 -19.445  0.00  0.00    +0.246 C 
ATOM      9  O1  UNL     1      -7.945  24.852 -19.319  0.00  0.00    -0.273 OA
ATOM     10  C23 UNL     1      -7.686  29.394 -17.933  0.00  0.00    +0.000 C 
ENDROOT
BRANCH   5  11
ATOM     11  C15 UNL     1      -8.769  25.255 -16.392  0.00  0.00    +0.260 C 
ATOM     12  O3  UNL     1      -7.932  24.568 -15.808  0.00  0.00    -0.272 OA
ATOM     13  N3  UNL     1     -10.112  24.950 -16.420  0.00  0.00    -0.190 NA
BRANCH  13  14
ATOM     14  C16 UNL     1     -10.607  23.873 -15.608  0.00  0.00    +0.186 C 
BRANCH  14  15
ATOM     15  C22 UNL     1     -10.608  22.583 -16.294  0.00  0.00    +0.094 C 
ATOM     16  N5  UNL     1     -10.553  21.549 -16.819  0.00  0.00    -0.194 NA
ENDBRANCH  14  15
BRANCH  14  17
ATOM     17  C17 UNL     1     -11.910  24.143 -14.875  0.00  0.00    +0.046 C 
BRANCH  17  18
ATOM     18  C18 UNL     1     -12.053  25.549 -14.339  0.00  0.00    +0.083 C 
ATOM     19  C19 UNL     1     -12.689  25.566 -12.964  0.00  0.00    +0.033 C 
ATOM     20  C20 UNL     1     -13.415  26.898 -12.933  0.00  0.00    +0.116 C 
ATOM     21  N4  UNL     1     -13.759  27.144 -14.304  0.00  0.00    -0.205 NA
ATOM     22  C21 UNL     1     -13.012  26.356 -15.167  0.00  0.00    +0.241 C 
ATOM     23  O4  UNL     1     -13.083  26.322 -16.384  0.00  0.00    -0.273 OA
ENDBRANCH  17  18
ENDBRANCH  14  17
ENDBRANCH  13  14
ENDBRANCH   5  11
BRANCH   8  24
ATOM     24  C8  UNL     1      -9.684  25.811 -20.722  0.00  0.00    +0.171 C 
BRANCH  24  25
ATOM     25  C9  UNL     1     -10.646  24.642 -20.921  0.00  0.00    +0.027 C 
ATOM     26  C10 UNL     1     -12.064  25.162 -21.027  0.00  0.00    +0.002 C 
ATOM     27  C11 UNL     1     -10.606  23.707 -19.731  0.00  0.00    +0.002 C 
ATOM     28  C12 UNL     1     -10.337  23.844 -22.170  0.00  0.00    +0.002 C 
ENDBRANCH  24  25
BRANCH  24  29
ATOM     29  N2  UNL     1      -8.783  25.993 -21.839  0.00  0.00    -0.191 NA
ATOM     30  C13 UNL     1      -9.029  27.010 -22.745  0.00  0.00    +0.337 C 
ATOM     31  O2  UNL     1     -10.006  27.755 -22.635  0.00  0.00    -0.264 OA
BRANCH  30  32
ATOM     32  C14 UNL     1      -7.965  27.121 -23.841  0.00  0.00    +0.471 C 
ATOM     33  F1  UNL     1      -8.493  27.374 -25.073  0.00  0.00    -0.162 F 
ATOM     34  F2  UNL     1      -7.235  25.980 -23.965  0.00  0.00    -0.162 F 
ATOM     35  F3  UNL     1      -7.075  28.124 -23.602  0.00  0.00    -0.162 F 
ENDBRANCH  30  32
ENDBRANCH  24  29
ENDBRANCH   8  24
TORSDOF 9
ENDMDL
