MODEL 1
REMARK VINA RESULT:    -9.621      0.000      0.000
REMARK INTER + INTRA:          -5.623
REMARK INTER:                 -11.309
REMARK INTRA:                   5.686
REMARK UNBOUND:                 5.686
REMARK  Name = /tmp/tmpvzhoblhn/5V90_candidate_0058.pdb
REMARK  5 active torsions:
REMARK  status: ('A' for Active; 'I' for Inactive)
REMARK    1  A    between atoms: C3_3  and  C21_38
REMARK    2  A    between atoms: C7_9  and  N4_21
REMARK    3  A    between atoms: C9_11  and  N1_16
REMARK    4  A    between atoms: C15_27  and  N7_36
REMARK    5  A    between atoms: C18_30  and  C19_32
REMARK                            x       y       z     vdW  Elec       q    Type
REMARK                         _______ _______ _______ _____ _____    ______ ____
ROOT
ATOM      1  C1  UNL     1     -18.715   2.808 -13.363  0.00  0.00    +0.035 C 
ATOM      2  C2  UNL     1     -18.681   2.185 -14.740  0.00  0.00    +0.155 C 
ATOM      3  C3  UNL     1     -19.029   0.712 -14.749  0.00  0.00    +0.238 C 
ATOM      4  C4  UNL     1     -17.707  -0.015 -14.759  0.00  0.00    +0.204 C 
ATOM      5  C5  UNL     1     -16.674   1.091 -14.907  0.00  0.00    +0.243 C 
ATOM      6  O1  UNL     1     -17.350   2.293 -15.265  0.00  0.00    -0.330 OA
ATOM      7  O2  UNL     1     -15.627   0.736 -15.793  0.00  0.00    -0.328 OA
ATOM      8  C6  UNL     1     -16.116   0.536 -17.114  0.00  0.00    +0.174 C 
ATOM      9  C7  UNL     1     -16.112   1.844 -17.901  0.00  0.00    +0.180 C 
ATOM     10  C8  UNL     1     -14.784   2.190 -18.560  0.00  0.00    +0.192 C 
ATOM     11  C9  UNL     1     -14.175   0.979 -19.254  0.00  0.00    +0.173 C 
ATOM     12  C10 UNL     1     -14.036  -0.240 -18.357  0.00  0.00    +0.206 C 
ATOM     13  C11 UNL     1     -15.397  -0.622 -17.800  0.00  0.00    +0.177 C 
ATOM     14  O3  UNL     1     -16.210  -1.090 -18.873  0.00  0.00    -0.341 OA
ATOM     15  O4  UNL     1     -13.121  -0.029 -17.293  0.00  0.00    -0.218 OA
ATOM     16  O5  UNL     1     -13.915   2.747 -17.584  0.00  0.00    -0.217 OA
ATOM     17  O6  UNL     1     -17.437  -0.793 -13.600  0.00  0.00    -0.326 OA
ATOM     18  C14 UNL     1     -17.515  -2.158 -13.980  0.00  0.00    +0.234 C 
ATOM     19  C15 UNL     1     -17.576  -3.062 -12.748  0.00  0.00    +0.195 C 
ATOM     20  C16 UNL     1     -16.212  -3.466 -12.219  0.00  0.00    +0.306 C 
ATOM     21  C17 UNL     1     -15.187  -3.734 -13.307  0.00  0.00    +0.212 C 
ATOM     22  C18 UNL     1     -15.229  -2.594 -14.310  0.00  0.00    +0.184 C 
ATOM     23  O7  UNL     1     -16.507  -2.476 -14.930  0.00  0.00    -0.328 OA
ATOM     24  O9  UNL     1     -15.468  -4.979 -13.928  0.00  0.00    -0.347 OA
ATOM     25  O10 UNL     1     -15.722  -2.410 -11.391  0.00  0.00    -0.177 OA
ATOM     26  O12 UNL     1     -19.907   0.301 -13.729  0.00  0.00    -0.212 OA
ATOM     27  C22 UNL     1     -16.870  -4.472 -14.489  0.00  0.00    +0.155 C 
ATOM     28  C23 UNL     1     -16.488  -3.020 -14.648  0.00  0.00    +0.098 C 
ATOM     29  C24 UNL     1     -16.700  -2.159 -13.407  0.00  0.00    +0.210 C 
ATOM     30  N8  UNL     1     -17.096  -0.833 -13.843  0.00  0.00    -0.257 N 
ATOM     31  C25 UNL     1     -17.839  -0.734 -15.117  0.00  0.00    +0.160 C 
ATOM     32  S1  UNL     1     -17.486  -2.315 -16.005  0.00  0.00    -0.116 S 
ATOM     33  C26 UNL     1     -16.942   0.478 -15.466  0.00  0.00    +0.222 C 
ATOM     34  C27 UNL     1     -16.113   0.027 -14.251  0.00  0.00    +0.252 C 
ATOM     35  O13 UNL     1     -14.997   0.191 -13.813  0.00  0.00    -0.273 OA
ATOM     36  N9  UNL     1     -16.256   0.464 -16.759  0.00  0.00    -0.190 NA
ATOM     37  C28 UNL     1     -16.917   0.787 -17.924  0.00  0.00    +0.272 C 
ATOM     38  O14 UNL     1     -18.100   1.111 -17.977  0.00  0.00    -0.270 OA
ATOM     39  C29 UNL     1     -16.031   0.679 -19.134  0.00  0.00    +0.204 C 
ATOM     40  C30 UNL     1     -15.276   1.937 -19.406  0.00  0.00    +0.011 A 
ATOM     41  C31 UNL     1     -15.853   2.957 -20.160  0.00  0.00    -0.002 A 
ATOM     42  C32 UNL     1     -15.140   4.127 -20.415  0.00  0.00    -0.000 A 
ATOM     43  C33 UNL     1     -13.846   4.272 -19.921  0.00  0.00    -0.000 A 
ATOM     44  C34 UNL     1     -13.263   3.252 -19.175  0.00  0.00    -0.002 A 
ATOM     45  C35 UNL     1     -13.975   2.084 -18.920  0.00  0.00    +0.008 A 
ATOM     46  C36 UNL     1     -17.731  -2.715 -12.447  0.00  0.00    +0.341 C 
ATOM     47  O15 UNL     1     -18.947  -2.667 -12.575  0.00  0.00    -0.248 OA
ATOM     48  O16 UNL     1     -17.098  -3.310 -11.402  0.00  0.00    -0.423 OA
ATOM     49  C37 UNL     1     -15.041  -2.952 -15.082  0.00  0.00    +0.016 C 
ENDROOT
BRANCH  11  50
ATOM     50  N1  UNL     1     -12.927   1.298 -19.955  0.00  0.00    -0.230 NA
ATOM     51  C12 UNL     1     -12.819   0.707 -21.109  0.00  0.00    +0.284 C 
ATOM     52  N2  UNL     1     -13.749  -0.138 -21.687  0.00  0.00    -0.104 NA
ATOM     53  N3  UNL     1     -11.707   0.883 -21.912  0.00  0.00    -0.104 NA
ENDBRANCH  11  50
BRANCH   9  54
ATOM     54  N4  UNL     1     -17.198   1.835 -18.886  0.00  0.00    -0.229 NA
ATOM     55  C13 UNL     1     -18.059   2.796 -18.705  0.00  0.00    +0.284 C 
ATOM     56  N5  UNL     1     -18.022   3.768 -17.720  0.00  0.00    -0.104 NA
ATOM     57  N6  UNL     1     -19.154   2.949 -19.537  0.00  0.00    -0.104 NA
ENDBRANCH   9  54
BRANCH  22  58
ATOM     58  C19 UNL     1     -14.106  -2.662 -15.323  0.00  0.00    +0.214 C 
ATOM     59  O8  UNL     1     -12.897  -2.132 -14.815  0.00  0.00    -0.218 OA
ENDBRANCH  22  58
BRANCH  19  60
ATOM     60  N7  UNL     1     -18.452  -4.214 -12.943  0.00  0.00    -0.207 NA
ATOM     61  C20 UNL     1     -18.703  -4.812 -11.638  0.00  0.00    +0.108 C 
ENDBRANCH  19  60
BRANCH   3  62
ATOM     62  C21 UNL     1     -19.679   0.420 -16.069  0.00  0.00    +0.242 C 
ATOM     63  O11 UNL     1     -20.834   0.670 -16.379  0.00  0.00    -0.285 OA
ENDBRANCH   3  62
TORSDOF 5
ENDMDL
