MODEL 1
REMARK VINA RESULT:    -7.783      0.000      0.000
REMARK INTER + INTRA:         -10.393
REMARK INTER:                 -10.057
REMARK INTRA:                  -0.336
REMARK UNBOUND:                -0.336
REMARK  Name = /tmp/tmpg6ecwgco/5V90_candidate_0083.pdb
REMARK  5 active torsions:
REMARK  status: ('A' for Active; 'I' for Inactive)
REMARK    1  A    between atoms: C4_4  and  C6_6
REMARK    2  A    between atoms: C6_6  and  C7_7
REMARK    3  A    between atoms: C6_6  and  N2_10
REMARK    4  A    between atoms: C7_7  and  C8_8
REMARK    5  A    between atoms: C10_12  and  C12_15
REMARK                            x       y       z     vdW  Elec       q    Type
REMARK                         _______ _______ _______ _____ _____    ______ ____
ROOT
ATOM      1  N2  UNL     1     -20.160  13.652 -18.281  0.00  0.00    -0.250 N 
ATOM      2  C9  UNL     1     -20.616  14.675 -17.505  0.00  0.00    +0.098 A 
ATOM      3  C10 UNL     1     -20.142  15.832 -18.084  0.00  0.00    +0.057 A 
ATOM      4  C11 UNL     1     -19.392  15.380 -19.194  0.00  0.00    +0.123 A 
ATOM      5  N3  UNL     1     -19.390  14.047 -19.308  0.00  0.00    -0.168 NA
ENDROOT
BRANCH   3   6
ATOM      6  C12 UNL     1     -20.375  17.178 -17.624  0.00  0.00    +0.089 A 
ATOM      7  C13 UNL     1     -21.460  17.536 -16.818  0.00  0.00    +0.055 A 
ATOM      8  C14 UNL     1     -22.579  16.899 -16.217  0.00  0.00    +0.025 A 
ATOM      9  C15 UNL     1     -23.293  17.851 -15.526  0.00  0.00    +0.101 A 
ATOM     10  N4  UNL     1     -22.647  19.043 -15.686  0.00  0.00    -0.225 NA
ATOM     11  C16 UNL     1     -21.535  18.877 -16.465  0.00  0.00    +0.166 A 
ATOM     12  N5  UNL     1     -20.680  19.851 -16.816  0.00  0.00    -0.205 NA
ATOM     13  C17 UNL     1     -19.682  19.388 -17.586  0.00  0.00    +0.200 A 
ATOM     14  N6  UNL     1     -19.484  18.125 -18.004  0.00  0.00    -0.224 NA
ENDBRANCH   3   6
BRANCH   1  15
ATOM     15  C6  UNL     1     -20.398  12.253 -18.029  0.00  0.00    +0.120 C 
BRANCH  15  19
ATOM     16  C1  UNL     1     -23.380  10.071 -18.738  0.00  0.00    +0.000 C 
ATOM     17  C2  UNL     1     -23.956  11.455 -18.991  0.00  0.00    +0.000 C 
ATOM     18  C3  UNL     1     -22.861  12.451 -18.668  0.00  0.00    +0.002 C 
ATOM     19  C4  UNL     1     -21.579  11.654 -18.767  0.00  0.00    +0.024 C 
ATOM     20  C5  UNL     1     -21.948  10.272 -18.277  0.00  0.00    +0.002 C 
ENDBRANCH  15  19
BRANCH  15  21
ATOM     21  C7  UNL     1     -19.142  11.440 -18.228  0.00  0.00    +0.130 C 
BRANCH  21  22
ATOM     22  C8  UNL     1     -18.674  10.942 -16.940  0.00  0.00    +0.075 C 
ATOM     23  N1  UNL     1     -18.322  10.561 -15.903  0.00  0.00    -0.196 NA
ENDBRANCH  21  22
ENDBRANCH  15  21
ENDBRANCH   1  15
TORSDOF 5
ENDMDL
