MODEL 1
REMARK VINA RESULT:    -8.393      0.000      0.000
REMARK INTER + INTRA:          -9.776
REMARK INTER:                  -9.374
REMARK INTRA:                  -0.402
REMARK UNBOUND:                -0.402
REMARK  Name = /tmp/tmp4ei3l51x/5V90_candidate_0062.pdb
REMARK  2 active torsions:
REMARK  status: ('A' for Active; 'I' for Inactive)
REMARK    1  A    between atoms: C6_8  and  C7_10
REMARK    2  A    between atoms: C16_23  and  C17_24
REMARK                            x       y       z     vdW  Elec       q    Type
REMARK                         _______ _______ _______ _____ _____    ______ ____
ROOT
ATOM      1  C1  UNL     1      -1.403  15.342 -24.366  0.00  0.00    +0.023 C 
ATOM      2  C2  UNL     1      -0.034  15.686 -23.812  0.00  0.00    +0.095 C 
ATOM      3  C3  UNL     1       0.149  17.182 -24.089  0.00  0.00    +0.112 C 
ATOM      4  N1  UNL     1       1.542  17.622 -23.953  0.00  0.00    -0.291 N 
ATOM      5  C4  UNL     1       2.375  16.820 -24.850  0.00  0.00    +0.094 C 
ATOM      6  C5  UNL     1       2.371  15.366 -24.423  0.00  0.00    +0.113 C 
ATOM      7  N2  UNL     1       1.018  14.819 -24.357  0.00  0.00    -0.274 N 
ATOM      8  C6  UNL     1       0.859  13.440 -24.278  0.00  0.00    +0.249 C 
ATOM      9  O1  UNL     1      -0.171  12.890 -23.914  0.00  0.00    -0.270 OA
ATOM     10  C9  UNL     1       3.761  17.377 -25.026  0.00  0.00    +0.023 C 
ATOM     11  C10 UNL     1       2.000  17.982 -22.687  0.00  0.00    +0.139 A 
ATOM     12  N3  UNL     1       3.021  17.373 -22.164  0.00  0.00    -0.177 NA
ATOM     13  C11 UNL     1       3.537  17.715 -20.937  0.00  0.00    +0.356 A 
ATOM     14  O2  UNL     1       4.558  17.155 -20.541  0.00  0.00    -0.244 OA
ATOM     15  N4  UNL     1       2.896  18.697 -20.183  0.00  0.00    -0.239 N 
ATOM     16  C12 UNL     1       3.445  19.124 -18.933  0.00  0.00    +0.117 A 
ATOM     17  C13 UNL     1       3.877  20.452 -18.725  0.00  0.00    +0.158 A 
ATOM     18  C14 UNL     1       4.411  20.824 -17.495  0.00  0.00    +0.059 A 
ATOM     19  C15 UNL     1       4.496  19.868 -16.502  0.00  0.00    +0.102 A 
ATOM     20  N5  UNL     1       4.094  18.589 -16.650  0.00  0.00    -0.246 NA
ATOM     21  C16 UNL     1       3.593  18.225 -17.863  0.00  0.00    +0.078 A 
ATOM     22  O3  UNL     1       3.815  21.336 -19.779  0.00  0.00    -0.470 OA
ATOM     23  C20 UNL     1       4.054  22.689 -19.388  0.00  0.00    +0.253 C 
ATOM     24  C21 UNL     1       2.773  23.390 -18.958  0.00  0.00    +0.253 C 
ATOM     25  O4  UNL     1       1.784  23.329 -19.986  0.00  0.00    -0.469 OA
ATOM     26  C22 UNL     1       0.551  23.274 -19.374  0.00  0.00    +0.170 A 
ATOM     27  C23 UNL     1       0.107  24.306 -18.537  0.00  0.00    +0.174 A 
ATOM     28  C24 UNL     1      -1.160  24.268 -17.965  0.00  0.00    +0.035 A 
ATOM     29  C25 UNL     1      -2.003  23.196 -18.244  0.00  0.00    +0.032 A 
ATOM     30  C26 UNL     1      -1.569  22.170 -19.083  0.00  0.00    +0.145 A 
ATOM     31  C27 UNL     1      -0.295  22.186 -19.668  0.00  0.00    +0.082 A 
ATOM     32  C28 UNL     1       0.161  21.080 -20.513  0.00  0.00    +0.099 A 
ATOM     33  C29 UNL     1      -0.298  20.836 -21.804  0.00  0.00    +0.076 A 
ATOM     34  C30 UNL     1       0.285  19.801 -22.522  0.00  0.00    +0.019 A 
ATOM     35  C31 UNL     1       1.324  19.069 -21.960  0.00  0.00    +0.067 A 
ATOM     36  C32 UNL     1       1.776  19.387 -20.693  0.00  0.00    +0.154 A 
ATOM     37  N6  UNL     1       1.153  20.335 -19.947  0.00  0.00    -0.227 NA
ATOM     38 CL1  UNL     1      -1.513  21.774 -22.580  0.00  0.00    -0.081 Cl
ATOM     39  F1  UNL     1      -2.400  21.141 -19.321  0.00  0.00    -0.204 F 
ATOM     40  F2  UNL     1       0.903  25.353 -18.276  0.00  0.00    -0.201 F 
ENDROOT
BRANCH  21  41
ATOM     41  C17 UNL     1       3.102  16.808 -17.983  0.00  0.00    +0.042 C 
ATOM     42  C18 UNL     1       4.154  15.818 -17.541  0.00  0.00    +0.006 C 
ATOM     43  C19 UNL     1       1.835  16.617 -17.175  0.00  0.00    +0.006 C 
ENDBRANCH  21  41
BRANCH   8  44
ATOM     44  C7  UNL     1       2.054  12.668 -24.702  0.00  0.00    +0.058 C 
ATOM     45  C8  UNL     1       2.570  11.786 -23.841  0.00  0.00    +0.005 C 
ENDBRANCH   8  44
TORSDOF 2
ENDMDL
