MODEL 1
REMARK VINA RESULT:    -8.037      0.000      0.000
REMARK INTER + INTRA:         -13.370
REMARK INTER:                 -12.265
REMARK INTRA:                  -1.104
REMARK UNBOUND:                -1.104
REMARK  Name = /tmp/tmpiisiu42c/5V90_candidate_0022.pdb
REMARK  9 active torsions:
REMARK  status: ('A' for Active; 'I' for Inactive)
REMARK    1  A    between atoms: C2_2  and  C3_3
REMARK    2  A    between atoms: C2_2  and  N7_32
REMARK    3  A    between atoms: C3_3  and  N1_4
REMARK    4  A    between atoms: C7_9  and  C8_11
REMARK    5  A    between atoms: N4_13  and  C18_29
REMARK    6  A    between atoms: C10_15  and  C11_16
REMARK    7  A    between atoms: C13_18  and  N6_23
REMARK    8  A    between atoms: N6_23  and  S1_24
REMARK    9  A    between atoms: C21_33  and  O4_35
REMARK                            x       y       z     vdW  Elec       q    Type
REMARK                         _______ _______ _______ _____ _____    ______ ____
ROOT
ATOM      1  C8  UNL     1       1.798  14.028 -24.238  0.00  0.00    +0.056 A 
ATOM      2  C9  UNL     1       2.206  12.743 -23.948  0.00  0.00    +0.098 A 
ATOM      3  N4  UNL     1       3.553  12.797 -23.782  0.00  0.00    -0.251 N 
ATOM      4  N5  UNL     1       4.071  14.022 -23.951  0.00  0.00    -0.169 NA
ATOM      5  C10 UNL     1       3.004  14.800 -24.208  0.00  0.00    +0.106 A 
ENDROOT
BRANCH   5   6
ATOM      6  C11 UNL     1       3.207  16.225 -24.410  0.00  0.00    +0.049 A 
ATOM      7  C12 UNL     1       2.651  17.175 -23.552  0.00  0.00    +0.158 A 
ATOM      8  C13 UNL     1       2.877  18.538 -23.762  0.00  0.00    +0.119 A 
ATOM      9  C14 UNL     1       3.661  18.963 -24.830  0.00  0.00    +0.032 A 
ATOM     10  C15 UNL     1       4.230  18.015 -25.673  0.00  0.00    +0.059 A 
ATOM     11  C16 UNL     1       4.010  16.656 -25.470  0.00  0.00    +0.015 A 
ATOM     12 CL1  UNL     1       5.198  18.531 -26.990  0.00  0.00    -0.082 Cl
ATOM     13  F1  UNL     1       1.889  16.788 -22.517  0.00  0.00    -0.203 F 
BRANCH   8  14
ATOM     14  N6  UNL     1       2.235  19.513 -22.936  0.00  0.00    -0.098 NA
BRANCH  14  15
ATOM     15  S1  UNL     1       0.767  20.129 -23.566  0.00  0.00    +0.075 S 
ATOM     16  O1  UNL     1       0.386  19.337 -24.716  0.00  0.00    -0.153 OA
ATOM     17  O2  UNL     1       0.817  21.577 -23.616  0.00  0.00    -0.153 OA
ATOM     18  C17 UNL     1      -0.316  19.668 -22.237  0.00  0.00    +0.202 C 
ENDBRANCH  14  15
ENDBRANCH   8  14
ENDBRANCH   5   6
BRANCH   1  24
ATOM     19  N1  UNL     1      -2.463  12.593 -25.804  0.00  0.00    -0.202 NA
ATOM     20  C4  UNL     1      -1.632  13.611 -25.316  0.00  0.00    +0.237 A 
ATOM     21  N2  UNL     1      -2.160  14.837 -25.213  0.00  0.00    -0.211 NA
ATOM     22  C5  UNL     1      -1.362  15.815 -24.751  0.00  0.00    +0.103 A 
ATOM     23  C6  UNL     1      -0.047  15.643 -24.403  0.00  0.00    +0.040 A 
ATOM     24  C7  UNL     1       0.414  14.356 -24.539  0.00  0.00    +0.089 A 
ATOM     25  N3  UNL     1      -0.354  13.339 -24.995  0.00  0.00    -0.212 NA
BRANCH  19  26
ATOM     26  C3  UNL     1      -1.790  11.309 -25.764  0.00  0.00    +0.137 C 
BRANCH  26  28
ATOM     27  C1  UNL     1      -3.195  10.969 -27.825  0.00  0.00    +0.025 C 
ATOM     28  C2  UNL     1      -2.356  10.313 -26.752  0.00  0.00    +0.120 C 
BRANCH  28  29
ATOM     29  N7  UNL     1      -3.039   9.223 -26.110  0.00  0.00    -0.169 NA
ATOM     30  C21 UNL     1      -2.716   7.921 -26.395  0.00  0.00    +0.421 C 
ATOM     31  O3  UNL     1      -1.828   7.571 -27.163  0.00  0.00    -0.225 OA
BRANCH  30  32
ATOM     32  O4  UNL     1      -3.514   7.074 -25.697  0.00  0.00    -0.429 OA
ATOM     33  C22 UNL     1      -3.390   5.740 -26.176  0.00  0.00    +0.257 C 
ENDBRANCH  30  32
ENDBRANCH  28  29
ENDBRANCH  26  28
ENDBRANCH  19  26
ENDBRANCH   1  24
BRANCH   3  34
ATOM     34  C18 UNL     1       4.437  11.700 -23.465  0.00  0.00    +0.105 C 
ATOM     35  C19 UNL     1       5.358  12.044 -22.319  0.00  0.00    +0.026 C 
ATOM     36  C20 UNL     1       3.667  10.437 -23.162  0.00  0.00    +0.026 C 
ENDBRANCH   3  34
TORSDOF 9
ENDMDL
