MODEL 1
REMARK VINA RESULT:    -9.108      0.000      0.000
REMARK INTER + INTRA:         -11.013
REMARK INTER:                 -10.173
REMARK INTRA:                  -0.840
REMARK UNBOUND:                -0.840
REMARK  Name = /tmp/tmpmw_qwib8/5V90_candidate_0014.pdb
REMARK  2 active torsions:
REMARK  status: ('A' for Active; 'I' for Inactive)
REMARK    1  A    between atoms: C9_11  and  C15_20
REMARK    2  A    between atoms: C22_31  and  C23_33
REMARK                            x       y       z     vdW  Elec       q    Type
REMARK                         _______ _______ _______ _____ _____    ______ ____
ROOT
ATOM      1  C1  UNL     1     -19.978  18.812 -17.961  0.00  0.00    +0.023 C 
ATOM      2  C2  UNL     1     -20.736  18.793 -16.651  0.00  0.00    +0.095 C 
ATOM      3  C3  UNL     1     -20.875  17.374 -16.121  0.00  0.00    +0.112 C 
ATOM      4  N1  UNL     1     -21.948  16.623 -16.763  0.00  0.00    -0.291 N 
ATOM      5  C4  UNL     1     -23.207  17.294 -16.988  0.00  0.00    +0.098 C 
ATOM      6  C5  UNL     1     -24.105  17.059 -15.798  0.00  0.00    +0.069 C 
ATOM      7  C6  UNL     1     -24.507  15.603 -15.859  0.00  0.00    +0.207 C 
ATOM      8  O1  UNL     1     -24.781  15.324 -17.230  0.00  0.00    -0.474 OA
ATOM      9  C7  UNL     1     -23.975  14.309 -17.688  0.00  0.00    +0.153 A 
ATOM     10  C8  UNL     1     -24.691  13.199 -18.195  0.00  0.00    +0.094 A 
ATOM     11  C9  UNL     1     -24.015  12.111 -18.738  0.00  0.00    +0.048 A 
ATOM     12  C10 UNL     1     -22.620  12.179 -18.764  0.00  0.00    +0.159 A 
ATOM     13  C11 UNL     1     -21.878  13.260 -18.292  0.00  0.00    +0.116 A 
ATOM     14  C12 UNL     1     -22.526  14.388 -17.744  0.00  0.00    +0.086 A 
ATOM     15  C13 UNL     1     -21.605  15.414 -17.327  0.00  0.00    +0.138 A 
ATOM     16  N2  UNL     1     -20.266  15.251 -17.424  0.00  0.00    -0.209 NA
ATOM     17  C14 UNL     1     -19.800  14.131 -17.958  0.00  0.00    +0.200 A 
ATOM     18  N3  UNL     1     -20.553  13.134 -18.399  0.00  0.00    -0.221 NA
ATOM     19  F1  UNL     1     -21.958  11.123 -19.280  0.00  0.00    -0.203 F 
ATOM     20 CL1  UNL     1     -26.432  13.186 -18.121  0.00  0.00    -0.079 Cl
ATOM     21  C21 UNL     1     -23.107  18.763 -17.363  0.00  0.00    +0.113 C 
ATOM     22  N4  UNL     1     -22.010  19.486 -16.752  0.00  0.00    -0.274 N 
ATOM     23  C22 UNL     1     -22.130  20.860 -16.706  0.00  0.00    +0.249 C 
ATOM     24  O3  UNL     1     -23.159  21.455 -17.011  0.00  0.00    -0.270 OA
ENDROOT
BRANCH  11  25
ATOM     25  C15 UNL     1     -24.696  10.924 -19.275  0.00  0.00    +0.069 A 
ATOM     26  C16 UNL     1     -24.898   9.770 -18.509  0.00  0.00    +0.198 A 
ATOM     27  C17 UNL     1     -25.540   8.648 -19.026  0.00  0.00    +0.042 A 
ATOM     28  C18 UNL     1     -25.997   8.662 -20.341  0.00  0.00    +0.006 A 
ATOM     29  C19 UNL     1     -25.810   9.793 -21.130  0.00  0.00    +0.030 A 
ATOM     30  C20 UNL     1     -25.165  10.907 -20.595  0.00  0.00    +0.143 A 
ATOM     31  F2  UNL     1     -24.997  11.986 -21.376  0.00  0.00    -0.204 F 
ATOM     32  O2  UNL     1     -24.467   9.714 -17.213  0.00  0.00    -0.286 OA
ENDBRANCH  11  25
BRANCH  23  33
ATOM     33  C23 UNL     1     -20.915  21.562 -16.226  0.00  0.00    +0.058 C 
ATOM     34  C24 UNL     1     -21.051  22.806 -15.761  0.00  0.00    +0.005 C 
ENDBRANCH  23  33
TORSDOF 2
ENDMDL
