MODEL 1
REMARK VINA RESULT:    -7.684      0.000      0.000
REMARK INTER + INTRA:         -12.960
REMARK INTER:                 -10.828
REMARK INTRA:                  -2.132
REMARK UNBOUND:                -2.132
REMARK  Name = /tmp/tmph87k2eia/5V90_candidate_0097.pdb
REMARK  7 active torsions:
REMARK  status: ('A' for Active; 'I' for Inactive)
REMARK    1  A    between atoms: C2_2  and  N1_3
REMARK    2  A    between atoms: C13_16  and  N8_52
REMARK    3  A    between atoms: C24_32  and  C25_33
REMARK    4  A    between atoms: C26_34  and  C35_46
REMARK    5  A    between atoms: C28_37  and  N6_39
REMARK    6  A    between atoms: C35_46  and  O4_48
REMARK    7  A    between atoms: C40_53  and  C41_55
REMARK                            x       y       z     vdW  Elec       q    Type
REMARK                         _______ _______ _______ _____ _____    ______ ____
ROOT
ATOM      1  N1  UNL     1       1.202  20.364 -23.922  0.00  0.00    -0.327 N 
ATOM      2  C3  UNL     1       0.907  19.040 -24.140  0.00  0.00    +0.060 A 
ATOM      3  C4  UNL     1       2.101  18.334 -24.018  0.00  0.00    +0.013 A 
ATOM      4  C5  UNL     1       2.078  16.933 -24.168  0.00  0.00    +0.003 A 
ATOM      5  C6  UNL     1       0.866  16.278 -24.420  0.00  0.00    +0.018 A 
ATOM      6  C7  UNL     1      -0.304  17.026 -24.549  0.00  0.00    +0.003 A 
ATOM      7  C8  UNL     1      -0.314  18.416 -24.417  0.00  0.00    +0.017 A 
ATOM      8  C9  UNL     1       0.827  14.829 -24.480  0.00  0.00    +0.088 A 
ATOM      9  C10 UNL     1      -0.336  14.104 -24.609  0.00  0.00    +0.056 A 
ATOM     10  S1  UNL     1      -0.032  12.434 -24.543  0.00  0.00    -0.070 S 
ATOM     11  C11 UNL     1       1.636  12.776 -24.349  0.00  0.00    +0.090 A 
ATOM     12  N2  UNL     1       1.972  14.050 -24.373  0.00  0.00    -0.243 NA
ATOM     13  C12 UNL     1       2.588  11.654 -24.179  0.00  0.00    +0.084 C 
ATOM     14  C13 UNL     1       3.881  11.971 -24.888  0.00  0.00    +0.179 C 
ATOM     15  C14 UNL     1       4.888  12.558 -23.919  0.00  0.00    +0.260 C 
ATOM     16  O1  UNL     1       5.179  12.004 -22.858  0.00  0.00    -0.272 OA
ATOM     17  N3  UNL     1       5.524  13.690 -24.424  0.00  0.00    -0.205 N 
ATOM     18  C15 UNL     1       5.026  14.409 -25.577  0.00  0.00    +0.113 C 
ATOM     19  C16 UNL     1       6.170  14.851 -26.473  0.00  0.00    +0.025 C 
ATOM     20  C17 UNL     1       7.536  14.635 -25.843  0.00  0.00    +0.033 C 
ATOM     21  C18 UNL     1       7.566  14.901 -24.345  0.00  0.00    +0.192 C 
ATOM     22  N4  UNL     1       6.413  14.389 -23.597  0.00  0.00    -0.118 NA
ATOM     23  C19 UNL     1       7.743  16.380 -24.079  0.00  0.00    +0.335 C 
ATOM     24  O2  UNL     1       8.768  16.871 -23.622  0.00  0.00    -0.248 OA
ATOM     25  O3  UNL     1       6.650  17.091 -24.479  0.00  0.00    -0.448 OA
ATOM     26  C20 UNL     1       6.833  18.492 -24.301  0.00  0.00    +0.209 C 
ATOM     27  C21 UNL     1       5.546  19.238 -24.603  0.00  0.00    +0.045 C 
ATOM     28  C22 UNL     1       4.557  18.925 -23.493  0.00  0.00    +0.031 C 
ATOM     29  C23 UNL     1       3.131  19.281 -23.719  0.00  0.00    -0.005 A 
ATOM     30  C24 UNL     1       2.539  20.538 -23.627  0.00  0.00    +0.057 A 
ATOM     31  C38 UNL     1       5.022  18.839 -25.969  0.00  0.00    +0.004 C 
ATOM     32  C39 UNL     1       5.882  20.711 -24.622  0.00  0.00    +0.004 C 
ENDROOT
BRANCH  30  33
ATOM     33  C25 UNL     1       3.125  21.837 -23.287  0.00  0.00    +0.033 A 
ATOM     34  C26 UNL     1       3.281  22.300 -21.979  0.00  0.00    +0.087 A 
ATOM     35  N5  UNL     1       3.829  23.513 -21.694  0.00  0.00    -0.244 NA
ATOM     36  C27 UNL     1       4.238  24.268 -22.740  0.00  0.00    +0.113 A 
ATOM     37  C28 UNL     1       4.119  23.929 -24.085  0.00  0.00    +0.067 A 
ATOM     38  C29 UNL     1       3.564  22.673 -24.319  0.00  0.00    +0.019 A 
BRANCH  37  39
ATOM     39  N6  UNL     1       4.579  24.741 -25.120  0.00  0.00    -0.303 N 
ATOM     40  C30 UNL     1       4.934  26.108 -24.740  0.00  0.00    +0.108 C 
ATOM     41  C31 UNL     1       5.732  26.788 -25.852  0.00  0.00    +0.094 C 
ATOM     42  N7  UNL     1       7.005  26.131 -26.151  0.00  0.00    -0.269 NA
ATOM     43  C32 UNL     1       6.883  24.673 -26.056  0.00  0.00    +0.094 C 
ATOM     44  C33 UNL     1       5.465  24.090 -26.084  0.00  0.00    +0.108 C 
ATOM     45  C34 UNL     1       7.329  26.448 -27.531  0.00  0.00    +0.090 C 
ENDBRANCH  37  39
BRANCH  34  46
ATOM     46  C35 UNL     1       2.831  21.455 -20.816  0.00  0.00    +0.155 C 
ATOM     47  C36 UNL     1       2.126  22.256 -19.745  0.00  0.00    +0.039 C 
BRANCH  46  48
ATOM     48  O4  UNL     1       3.834  20.594 -20.288  0.00  0.00    -0.348 OA
ATOM     49  C37 UNL     1       3.267  19.363 -19.853  0.00  0.00    +0.175 C 
ENDBRANCH  46  48
ENDBRANCH  34  46
ENDBRANCH  30  33
BRANCH  14  50
ATOM     50  N8  UNL     1       4.487  10.866 -25.595  0.00  0.00    -0.197 NA
ATOM     51  C40 UNL     1       4.599  10.790 -26.961  0.00  0.00    +0.241 C 
ATOM     52  O5  UNL     1       4.343  11.687 -27.755  0.00  0.00    -0.273 OA
BRANCH  51  53
ATOM     53  C41 UNL     1       5.093   9.477 -27.414  0.00  0.00    +0.078 C 
ATOM     54  C42 UNL     1       5.644   9.314 -28.803  0.00  0.00    +0.010 C 
ATOM     55  C43 UNL     1       6.565   9.250 -27.623  0.00  0.00    +0.009 C 
ATOM     56  C44 UNL     1       7.127   7.929 -27.251  0.00  0.00    +0.001 C 
ENDBRANCH  51  53
ENDBRANCH  14  50
BRANCH   1  58
ATOM     57  C1  UNL     1      -0.581  21.346 -22.579  0.00  0.00    +0.026 C 
ATOM     58  C2  UNL     1       0.192  21.408 -23.876  0.00  0.00    +0.106 C 
ENDBRANCH   1  58
TORSDOF 7
ENDMDL
