MODEL 1
REMARK VINA RESULT:    -4.041      0.000      0.000
REMARK INTER + INTRA:          -4.041
REMARK INTER:                  -4.041
REMARK INTRA:                   0.000
REMARK UNBOUND:                 0.000
REMARK  Name = /tmp/tmpgcp1hh6p/5V90_candidate_0081.pdb
REMARK  0 active torsions:
REMARK  status: ('A' for Active; 'I' for Inactive)
REMARK                            x       y       z     vdW  Elec       q    Type
REMARK                         _______ _______ _______ _____ _____    ______ ____
ROOT
ATOM      1  C1  UNL     1      -2.348  11.778 -25.880  0.00  0.00    +0.042 A 
ATOM      2  C2  UNL     1      -2.369  10.586 -26.563  0.00  0.00    +0.104 A 
ATOM      3  N1  UNL     1      -2.151  10.455 -27.884  0.00  0.00    -0.200 NA
ATOM      4  C3  UNL     1      -1.897  11.595 -28.540  0.00  0.00    +0.310 A 
ATOM      5  N2  UNL     1      -1.847  12.818 -27.994  0.00  0.00    -0.200 NA
ATOM      6  C4  UNL     1      -2.075  12.869 -26.671  0.00  0.00    +0.104 A 
ATOM      7  F1  UNL     1      -1.674  11.505 -29.859  0.00  0.00    -0.161 F 
ENDROOT
TORSDOF 0
ENDMDL
