MODEL 1
REMARK VINA RESULT:    -7.946      0.000      0.000
REMARK INTER + INTRA:         -11.423
REMARK INTER:                 -10.733
REMARK INTRA:                  -0.690
REMARK UNBOUND:                -0.690
REMARK  Name = /tmp/tmp0a3g1tlq/5V90_candidate_0020.pdb
REMARK  6 active torsions:
REMARK  status: ('A' for Active; 'I' for Inactive)
REMARK    1  A    between atoms: C3_3  and  N1_9
REMARK    2  A    between atoms: N1_9  and  C7_10
REMARK    3  A    between atoms: C8_11  and  C12_16
REMARK    4  A    between atoms: N3_18  and  C13_19
REMARK    5  A    between atoms: C13_19  and  C14_20
REMARK    6  A    between atoms: C14_20  and  C15_21
REMARK                            x       y       z     vdW  Elec       q    Type
REMARK                         _______ _______ _______ _____ _____    ______ ____
ROOT
ATOM      1  C7  UNL     1     -21.355  12.086 -18.286  0.00  0.00    +0.094 A 
ATOM      2  C8  UNL     1     -19.999  12.291 -17.995  0.00  0.00    +0.073 A 
ATOM      3  C9  UNL     1     -19.475  13.587 -17.988  0.00  0.00    +0.027 A 
ATOM      4  C10 UNL     1     -20.319  14.645 -18.260  0.00  0.00    +0.099 A 
ATOM      5  N2  UNL     1     -21.628  14.500 -18.534  0.00  0.00    -0.241 NA
ATOM      6  C11 UNL     1     -22.102  13.234 -18.536  0.00  0.00    +0.115 A 
ENDROOT
BRANCH   2   7
ATOM      7  C12 UNL     1     -19.066  11.167 -17.702  0.00  0.00    +0.266 C 
ATOM      8  O1  UNL     1     -18.263  10.744 -18.524  0.00  0.00    -0.268 OA
ATOM      9  N3  UNL     1     -19.161  10.658 -16.424  0.00  0.00    -0.199 NA
BRANCH   9  10
ATOM     10  C13 UNL     1     -18.378   9.526 -15.982  0.00  0.00    +0.151 C 
BRANCH  10  11
ATOM     11  C14 UNL     1     -19.175   8.482 -15.227  0.00  0.00    +0.206 C 
ATOM     12  O3  UNL     1     -20.320   9.116 -14.671  0.00  0.00    -0.218 OA
BRANCH  11  13
ATOM     13  C15 UNL     1     -18.379   7.837 -14.112  0.00  0.00    +0.217 C 
ATOM     14  O2  UNL     1     -19.089   7.869 -12.883  0.00  0.00    -0.218 OA
ENDBRANCH  11  13
ENDBRANCH  10  11
ENDBRANCH   9  10
ENDBRANCH   2   7
BRANCH   1  15
ATOM     15  N1  UNL     1     -21.954  10.812 -18.249  0.00  0.00    -0.208 NA
BRANCH  15  18
ATOM     16  C1  UNL     1     -24.377   9.678 -20.803  0.00  0.00    +0.007 A 
ATOM     17  C2  UNL     1     -23.198  10.071 -20.171  0.00  0.00    +0.019 A 
ATOM     18  C3  UNL     1     -23.181  10.401 -18.810  0.00  0.00    +0.098 A 
ATOM     19  C4  UNL     1     -24.394  10.365 -18.111  0.00  0.00    +0.156 A 
ATOM     20  C5  UNL     1     -25.578   9.976 -18.731  0.00  0.00    +0.037 A 
ATOM     21  C6  UNL     1     -25.559   9.629 -20.075  0.00  0.00    +0.032 A 
ATOM     22  I1  UNL     1     -27.303   9.045 -21.004  0.00  0.00    -0.042 I 
ATOM     23  F1  UNL     1     -24.449  10.744 -16.826  0.00  0.00    -0.203 F 
ENDBRANCH  15  18
ENDBRANCH   1  15
TORSDOF 6
ENDMDL
