MODEL 1
REMARK VINA RESULT:    -8.748      0.000      0.000
REMARK INTER + INTRA:         -11.881
REMARK INTER:                 -11.305
REMARK INTRA:                  -0.577
REMARK UNBOUND:                -0.577
REMARK  Name = /tmp/tmpbwxu0vo8/5V90_candidate_0075.pdb
REMARK  5 active torsions:
REMARK  status: ('A' for Active; 'I' for Inactive)
REMARK    1  A    between atoms: C3_3  and  C20_26
REMARK    2  A    between atoms: C7_8  and  O2_11
REMARK    3  A    between atoms: O2_11  and  C10_12
REMARK    4  A    between atoms: C14_18  and  O4_24
REMARK    5  A    between atoms: C15_19  and  O3_22
REMARK                            x       y       z     vdW  Elec       q    Type
REMARK                         _______ _______ _______ _____ _____    ______ ____
ROOT
ATOM      1  O2  UNL     1     -19.836  12.628 -19.263  0.00  0.00    -0.436 OA
ENDROOT
BRANCH   1   9
ATOM      2  C1  UNL     1     -23.420  17.787 -15.857  0.00  0.00    +0.073 C 
ATOM      3  C2  UNL     1     -22.356  17.147 -16.652  0.00  0.00    +0.128 A 
ATOM      4  C3  UNL     1     -21.186  17.619 -17.222  0.00  0.00    +0.088 A 
ATOM      5  C4  UNL     1     -20.595  16.482 -17.866  0.00  0.00    +0.042 A 
ATOM      6  C5  UNL     1     -21.457  15.414 -17.638  0.00  0.00    +0.148 A 
ATOM      7  O1  UNL     1     -22.522  15.822 -16.897  0.00  0.00    -0.457 OA
ATOM      8  C6  UNL     1     -21.252  14.114 -18.098  0.00  0.00    +0.075 A 
ATOM      9  C7  UNL     1     -20.097  13.920 -18.860  0.00  0.00    +0.150 A 
ATOM     10  C8  UNL     1     -19.184  14.951 -19.090  0.00  0.00    +0.038 A 
ATOM     11  C9  UNL     1     -19.428  16.241 -18.612  0.00  0.00    +0.006 A 
BRANCH   4  12
ATOM     12  C20 UNL     1     -20.728  18.997 -17.135  0.00  0.00    +0.268 C 
ATOM     13  O5  UNL     1     -20.429  19.531 -16.070  0.00  0.00    -0.268 OA
ATOM     14  N3  UNL     1     -20.660  19.644 -18.347  0.00  0.00    -0.200 NA
ATOM     15  C21 UNL     1     -20.225  21.012 -18.400  0.00  0.00    +0.139 C 
ENDBRANCH   4  12
ENDBRANCH   1   9
BRANCH   1  16
ATOM     16  C10 UNL     1     -20.062  11.618 -18.329  0.00  0.00    +0.233 A 
ATOM     17  N1  UNL     1     -19.138  11.400 -17.376  0.00  0.00    -0.189 NA
ATOM     18  C11 UNL     1     -19.400  10.387 -16.544  0.00  0.00    +0.202 A 
ATOM     19  N2  UNL     1     -20.478   9.590 -16.591  0.00  0.00    -0.224 NA
ATOM     20  C12 UNL     1     -21.368   9.821 -17.564  0.00  0.00    +0.091 A 
ATOM     21  C13 UNL     1     -22.498   9.024 -17.674  0.00  0.00    +0.059 A 
ATOM     22  C14 UNL     1     -23.461   9.215 -18.671  0.00  0.00    +0.174 A 
ATOM     23  C15 UNL     1     -23.290  10.245 -19.599  0.00  0.00    +0.173 A 
ATOM     24  C16 UNL     1     -22.161  11.057 -19.502  0.00  0.00    +0.046 A 
ATOM     25  C17 UNL     1     -21.207  10.849 -18.492  0.00  0.00    +0.074 A 
BRANCH  23  26
ATOM     26  O3  UNL     1     -24.247  10.409 -20.564  0.00  0.00    -0.468 OA
ATOM     27  C18 UNL     1     -24.973  11.620 -20.391  0.00  0.00    +0.253 C 
ENDBRANCH  23  26
BRANCH  22  28
ATOM     28  O4  UNL     1     -24.579   8.431 -18.784  0.00  0.00    -0.468 OA
ATOM     29  C19 UNL     1     -24.337   7.277 -19.580  0.00  0.00    +0.253 C 
ENDBRANCH  22  28
ENDBRANCH   1  16
TORSDOF 5
ENDMDL
