MODEL 1
REMARK VINA RESULT:    -7.856      0.000      0.000
REMARK INTER + INTRA:         -12.563
REMARK INTER:                 -10.612
REMARK INTRA:                  -1.951
REMARK UNBOUND:                -1.951
REMARK  Name = /tmp/tmpc0d0nt08/5V90_candidate_0035.pdb
REMARK  6 active torsions:
REMARK  status: ('A' for Active; 'I' for Inactive)
REMARK    1  A    between atoms: C7_7  and  O13_64
REMARK    2  A    between atoms: C18_19  and  O12_59
REMARK    3  A    between atoms: C25_27  and  C35_44
REMARK    4  A    between atoms: C35_44  and  C37_46
REMARK    5  A    between atoms: C37_46  and  C38_47
REMARK    6  A    between atoms: C42_51  and  O9_53
REMARK                            x       y       z     vdW  Elec       q    Type
REMARK                         _______ _______ _______ _____ _____    ______ ____
ROOT
ATOM      1  C1  UNL     1     -11.249  23.749 -21.895  0.00  0.00    +0.006 C 
ATOM      2  C2  UNL     1     -10.827  24.166 -20.511  0.00  0.00    +0.062 C 
ATOM      3  C3  UNL     1     -11.614  23.448 -19.448  0.00  0.00    +0.008 C 
ATOM      4  C4  UNL     1     -12.728  24.273 -18.886  0.00  0.00    +0.030 C 
ATOM      5  C5  UNL     1     -12.416  25.753 -18.816  0.00  0.00    +0.121 C 
ATOM      6  C6  UNL     1     -12.942  26.370 -17.541  0.00  0.00    +0.063 C 
ATOM      7  C7  UNL     1     -12.008  26.227 -16.358  0.00  0.00    +0.136 C 
ATOM      8  C8  UNL     1     -12.260  27.231 -15.283  0.00  0.00    -0.017 C 
ATOM      9  C9  UNL     1     -11.331  28.154 -15.014  0.00  0.00    -0.006 C 
ATOM     10  C10 UNL     1     -11.465  29.180 -14.024  0.00  0.00    -0.001 C 
ATOM     11  C11 UNL     1     -10.575  30.169 -13.914  0.00  0.00    -0.000 C 
ATOM     12  C12 UNL     1     -10.733  31.218 -12.955  0.00  0.00    -0.005 C 
ATOM     13  C13 UNL     1      -9.859  32.221 -12.885  0.00  0.00    -0.026 C 
ATOM     14  C14 UNL     1      -9.872  33.383 -11.962  0.00  0.00    +0.022 C 
ATOM     15  C15 UNL     1      -8.487  33.622 -11.395  0.00  0.00    +0.012 C 
ATOM     16  C16 UNL     1      -7.508  34.041 -12.461  0.00  0.00    +0.061 C 
ATOM     17  C17 UNL     1      -6.180  33.391 -12.161  0.00  0.00    +0.180 C 
ATOM     18  O1  UNL     1      -5.425  33.824 -11.287  0.00  0.00    -0.293 OA
ATOM     19  C18 UNL     1      -5.870  32.134 -12.975  0.00  0.00    +0.206 C 
ATOM     20  C19 UNL     1      -5.652  32.364 -14.461  0.00  0.00    +0.204 C 
ATOM     21  C20 UNL     1      -6.849  31.965 -15.275  0.00  0.00    -0.015 C 
ATOM     22  C21 UNL     1      -7.615  32.841 -15.932  0.00  0.00    -0.025 C 
ATOM     23  C22 UNL     1      -8.789  32.543 -16.789  0.00  0.00    +0.079 C 
ATOM     24  C23 UNL     1      -8.543  32.954 -18.232  0.00  0.00    +0.158 C 
ATOM     25  O2  UNL     1      -7.544  33.572 -18.599  0.00  0.00    -0.296 OA
ATOM     26  C24 UNL     1      -9.640  32.572 -19.201  0.00  0.00    +0.108 C 
ATOM     27  C25 UNL     1      -9.174  32.463 -20.639  0.00  0.00    +0.176 C 
ATOM     28  O3  UNL     1      -8.211  31.425 -20.762  0.00  0.00    -0.451 OA
ATOM     29  C26 UNL     1      -8.690  30.383 -21.495  0.00  0.00    +0.335 C 
ATOM     30  O4  UNL     1      -9.781  30.363 -22.048  0.00  0.00    -0.248 OA
ATOM     31  C27 UNL     1      -7.638  29.283 -21.547  0.00  0.00    +0.175 C 
ATOM     32  C28 UNL     1      -6.652  29.566 -22.666  0.00  0.00    +0.031 C 
ATOM     33  C29 UNL     1      -7.170  29.196 -24.042  0.00  0.00    +0.004 C 
ATOM     34  C30 UNL     1      -8.055  27.963 -24.058  0.00  0.00    +0.022 C 
ATOM     35  C31 UNL     1      -7.961  27.139 -22.788  0.00  0.00    +0.094 C 
ATOM     36  N1  UNL     1      -8.204  27.946 -21.613  0.00  0.00    -0.265 N 
ATOM     37  C32 UNL     1      -8.737  27.417 -20.446  0.00  0.00    +0.289 C 
ATOM     38  O5  UNL     1      -8.869  28.055 -19.410  0.00  0.00    -0.267 OA
ATOM     39  C33 UNL     1      -9.136  25.950 -20.495  0.00  0.00    +0.279 C 
ATOM     40  O6  UNL     1      -8.266  25.111 -20.723  0.00  0.00    -0.281 OA
ATOM     41  C34 UNL     1     -10.619  25.660 -20.303  0.00  0.00    +0.279 C 
ATOM     42  O7  UNL     1     -11.036  26.034 -18.997  0.00  0.00    -0.329 OA
ATOM     43  O8  UNL     1     -11.304  26.400 -21.298  0.00  0.00    -0.187 OA
ATOM     44  C45 UNL     1      -9.988  33.296 -16.262  0.00  0.00    +0.012 C 
ATOM     45  C46 UNL     1      -7.117  30.500 -15.320  0.00  0.00    +0.029 C 
ATOM     46  O11 UNL     1      -5.253  33.695 -14.725  0.00  0.00    -0.216 OA
ATOM     47  C48 UNL     1      -7.383  35.541 -12.515  0.00  0.00    +0.008 C 
ATOM     48  C49 UNL     1     -10.868  33.253 -10.826  0.00  0.00    +0.005 C 
ATOM     49  C50 UNL     1     -13.565  27.189 -14.570  0.00  0.00    +0.029 C 
ENDROOT
BRANCH  27  50
ATOM     50  C35 UNL     1      -8.675  33.772 -21.220  0.00  0.00    +0.041 C 
ATOM     51  C36 UNL     1      -9.822  34.594 -21.767  0.00  0.00    +0.004 C 
BRANCH  50  52
ATOM     52  C37 UNL     1      -7.632  33.582 -22.299  0.00  0.00    +0.004 C 
BRANCH  52  53
ATOM     53  C38 UNL     1      -6.311  34.188 -21.893  0.00  0.00    +0.003 C 
ATOM     54  C39 UNL     1      -5.642  34.911 -23.037  0.00  0.00    +0.003 C 
ATOM     55  C40 UNL     1      -4.873  34.040 -24.001  0.00  0.00    +0.035 C 
ATOM     56  C41 UNL     1      -4.556  32.647 -23.496  0.00  0.00    +0.179 C 
ATOM     57  C42 UNL     1      -4.258  32.669 -22.010  0.00  0.00    +0.146 C 
ATOM     58  C43 UNL     1      -5.447  33.159 -21.206  0.00  0.00    +0.032 C 
ATOM     59  O10 UNL     1      -3.441  32.163 -24.228  0.00  0.00    -0.221 OA
BRANCH  57  60
ATOM     60  O9  UNL     1      -3.801  31.428 -21.483  0.00  0.00    -0.351 OA
ATOM     61  C44 UNL     1      -4.349  31.193 -20.191  0.00  0.00    +0.174 C 
ENDBRANCH  57  60
ENDBRANCH  52  53
ENDBRANCH  50  52
ENDBRANCH  27  50
BRANCH  19  62
ATOM     62  O12 UNL     1      -5.072  31.110 -12.434  0.00  0.00    -0.343 OA
ATOM     63  C47 UNL     1      -5.863  30.308 -11.557  0.00  0.00    +0.175 C 
ENDBRANCH  19  62
BRANCH   7  64
ATOM     64  O13 UNL     1     -11.903  24.907 -15.848  0.00  0.00    -0.349 OA
ATOM     65  C51 UNL     1     -10.561  24.436 -15.841  0.00  0.00    +0.174 C 
ENDBRANCH   7  64
TORSDOF 6
ENDMDL
