MODEL 1
REMARK VINA RESULT:    -8.283      0.000      0.000
REMARK INTER + INTRA:         -12.501
REMARK INTER:                 -10.704
REMARK INTRA:                  -1.797
REMARK UNBOUND:                -1.797
REMARK  Name = /tmp/tmptue4suxa/5V90_candidate_0003.pdb
REMARK  5 active torsions:
REMARK  status: ('A' for Active; 'I' for Inactive)
REMARK    1  A    between atoms: C2_2  and  C3_3
REMARK    2  A    between atoms: C11_11  and  C13_13
REMARK    3  A    between atoms: C18_21  and  O1_32
REMARK    4  A    between atoms: O1_32  and  C26_33
REMARK    5  A    between atoms: C26_33  and  C27_34
REMARK                            x       y       z     vdW  Elec       q    Type
REMARK                         _______ _______ _______ _____ _____    ______ ____
ROOT
ATOM      1  C13 UNL     1     -23.130  11.045 -19.039  0.00  0.00    +0.110 A 
ATOM      2  N1  UNL     1     -23.506  11.163 -20.333  0.00  0.00    -0.241 NA
ATOM      3  C14 UNL     1     -24.616  10.487 -20.695  0.00  0.00    +0.103 A 
ATOM      4  C15 UNL     1     -25.401   9.717 -19.837  0.00  0.00    +0.071 A 
ATOM      5  C16 UNL     1     -24.996   9.609 -18.508  0.00  0.00    +0.119 A 
ATOM      6  C17 UNL     1     -23.852  10.295 -18.116  0.00  0.00    +0.175 A 
ATOM      7  F1  UNL     1     -23.433  10.228 -16.840  0.00  0.00    -0.201 F 
ATOM      8  N2  UNL     1     -25.673   8.864 -17.624  0.00  0.00    -0.192 NA
ATOM      9  C18 UNL     1     -26.753   8.216 -18.079  0.00  0.00    +0.321 A 
ATOM     10  N3  UNL     1     -27.200   8.237 -19.338  0.00  0.00    -0.179 NA
ATOM     11  C19 UNL     1     -26.552   9.015 -20.222  0.00  0.00    +0.139 A 
ATOM     12  N4  UNL     1     -27.053   9.067 -21.532  0.00  0.00    -0.290 N 
ATOM     13  C20 UNL     1     -28.163   8.124 -21.752  0.00  0.00    +0.109 C 
ATOM     14  C21 UNL     1     -29.547   8.784 -21.842  0.00  0.00    +0.093 C 
ATOM     15  C22 UNL     1     -29.895   9.496 -20.544  0.00  0.00    +0.021 C 
ATOM     16  C23 UNL     1     -29.303  10.889 -20.705  0.00  0.00    +0.021 C 
ATOM     17  C24 UNL     1     -28.700  10.891 -22.103  0.00  0.00    +0.093 C 
ATOM     18  C25 UNL     1     -27.239  10.423 -22.067  0.00  0.00    +0.109 C 
ATOM     19  N5  UNL     1     -29.510   9.892 -22.811  0.00  0.00    -0.217 NA
ENDROOT
BRANCH   1  28
ATOM     20  C3  UNL     1     -23.057  14.019 -18.003  0.00  0.00    +0.043 A 
ATOM     21  C4  UNL     1     -22.892  15.335 -17.551  0.00  0.00    +0.008 A 
ATOM     22  C5  UNL     1     -21.635  15.846 -17.276  0.00  0.00    +0.001 A 
ATOM     23  C6  UNL     1     -20.527  15.035 -17.449  0.00  0.00    +0.000 A 
ATOM     24  C7  UNL     1     -20.661  13.724 -17.898  0.00  0.00    +0.004 A 
ATOM     25  C8  UNL     1     -19.480  13.005 -18.032  0.00  0.00    +0.042 A 
ATOM     26  C9  UNL     1     -19.515  11.696 -18.472  0.00  0.00    +0.196 A 
ATOM     27  C10 UNL     1     -20.716  11.091 -18.785  0.00  0.00    +0.044 A 
ATOM     28  C11 UNL     1     -21.929  11.791 -18.664  0.00  0.00    +0.024 A 
ATOM     29  C12 UNL     1     -21.932  13.155 -18.201  0.00  0.00    +0.009 A 
ATOM     30  O2  UNL     1     -18.356  10.997 -18.598  0.00  0.00    -0.287 OA
BRANCH  20  32
ATOM     31  C1  UNL     1     -25.574  13.352 -18.399  0.00  0.00    -0.009 C 
ATOM     32  C2  UNL     1     -24.418  13.633 -18.233  0.00  0.00    -0.051 C 
ENDBRANCH  20  32
ENDBRANCH   1  28
BRANCH   9  33
ATOM     33  O1  UNL     1     -27.456   7.390 -17.229  0.00  0.00    -0.445 OA
BRANCH  33  34
ATOM     34  C26 UNL     1     -28.265   6.533 -18.026  0.00  0.00    +0.223 C 
BRANCH  34  35
ATOM     35  C27 UNL     1     -27.864   5.069 -17.894  0.00  0.00    +0.086 C 
ATOM     36  C28 UNL     1     -28.609   4.383 -16.771  0.00  0.00    +0.020 C 
ATOM     37  C29 UNL     1     -27.593   3.505 -16.071  0.00  0.00    +0.019 C 
ATOM     38  C30 UNL     1     -26.323   3.621 -16.879  0.00  0.00    +0.072 C 
ATOM     39  N6  UNL     1     -26.437   4.885 -17.600  0.00  0.00    -0.272 NA
ATOM     40  C31 UNL     1     -25.750   4.739 -18.878  0.00  0.00    +0.072 C 
ATOM     41  C32 UNL     1     -26.788   4.455 -19.943  0.00  0.00    +0.019 C 
ATOM     42  C33 UNL     1     -28.107   4.365 -19.213  0.00  0.00    +0.020 C 
ENDBRANCH  34  35
ENDBRANCH  33  34
ENDBRANCH   9  33
TORSDOF 5
ENDMDL
