MODEL 1
REMARK VINA RESULT:   -11.027      0.000      0.000
REMARK INTER + INTRA:         -14.695
REMARK INTER:                 -14.251
REMARK INTRA:                  -0.445
REMARK UNBOUND:                -0.445
REMARK  Name = /tmp/tmp4stc6bbh/5V90_candidate_0079.pdb
REMARK  5 active torsions:
REMARK  status: ('A' for Active; 'I' for Inactive)
REMARK    1  A    between atoms: C2_2  and  C3_3
REMARK    2  A    between atoms: C13_17  and  C14_18
REMARK    3  A    between atoms: C20_26  and  O5_29
REMARK    4  A    between atoms: O5_29  and  C23_30
REMARK    5  A    between atoms: C26_35  and  N4_38
REMARK                            x       y       z     vdW  Elec       q    Type
REMARK                         _______ _______ _______ _____ _____    ______ ____
ROOT
ATOM      1  C3  UNL     1     -22.791  15.405 -17.294  0.00  0.00    -0.021 A 
ATOM      2  C4  UNL     1     -22.992  16.707 -16.886  0.00  0.00    +0.016 A 
ATOM      3  C5  UNL     1     -24.175  17.346 -16.209  0.00  0.00    +0.137 C 
ATOM      4  N1  UNL     1     -23.732  18.735 -16.072  0.00  0.00    -0.290 N 
ATOM      5  C6  UNL     1     -22.463  18.921 -16.588  0.00  0.00    +0.080 A 
ATOM      6  C7  UNL     1     -21.867  20.117 -16.567  0.00  0.00    +0.017 A 
ATOM      7  C8  UNL     1     -22.587  21.236 -15.981  0.00  0.00    +0.021 A 
ATOM      8  C9  UNL     1     -23.821  21.060 -15.479  0.00  0.00    +0.076 A 
ATOM      9  C10 UNL     1     -24.489  19.728 -15.508  0.00  0.00    +0.260 A 
ATOM     10  O1  UNL     1     -25.620  19.575 -15.064  0.00  0.00    -0.267 OA
ATOM     11  C11 UNL     1     -24.587  22.188 -14.909  0.00  0.00    +0.240 C 
ATOM     12  O2  UNL     1     -23.736  23.170 -14.299  0.00  0.00    -0.441 OA
ATOM     13  C12 UNL     1     -22.498  23.458 -14.785  0.00  0.00    +0.349 C 
ATOM     14  O3  UNL     1     -21.864  24.396 -14.303  0.00  0.00    -0.247 OA
ATOM     15  C13 UNL     1     -21.959  22.600 -15.945  0.00  0.00    +0.233 C 
ATOM     16  O4  UNL     1     -20.554  22.481 -15.767  0.00  0.00    -0.210 OA
ATOM     17  C16 UNL     1     -21.992  17.646 -17.105  0.00  0.00    +0.095 A 
ATOM     18  N2  UNL     1     -20.810  17.414 -17.690  0.00  0.00    -0.244 NA
ATOM     19  C17 UNL     1     -20.598  16.147 -18.088  0.00  0.00    +0.081 A 
ATOM     20  C18 UNL     1     -21.559  15.106 -17.907  0.00  0.00    +0.017 A 
ATOM     21  C19 UNL     1     -21.259  13.809 -18.341  0.00  0.00    +0.039 A 
ATOM     22  C20 UNL     1     -20.047  13.546 -18.970  0.00  0.00    +0.150 A 
ATOM     23  C21 UNL     1     -19.097  14.542 -19.133  0.00  0.00    +0.039 A 
ATOM     24  C22 UNL     1     -19.392  15.830 -18.697  0.00  0.00    +0.022 A 
ENDROOT
BRANCH   1  26
ATOM     25  C1  UNL     1     -24.820  14.354 -18.220  0.00  0.00    +0.005 C 
ATOM     26  C2  UNL     1     -23.839  14.364 -17.070  0.00  0.00    +0.026 C 
ENDBRANCH   1  26
BRANCH  15  27
ATOM     27  C14 UNL     1     -22.249  23.371 -17.225  0.00  0.00    +0.046 C 
ATOM     28  C15 UNL     1     -21.012  23.836 -17.962  0.00  0.00    +0.004 C 
ENDBRANCH  15  27
BRANCH  22  29
ATOM     29  O5  UNL     1     -19.711  12.244 -19.346  0.00  0.00    -0.410 OA
BRANCH  29  30
ATOM     30  C23 UNL     1     -20.573  11.270 -18.851  0.00  0.00    +0.409 C 
ATOM     31  O6  UNL     1     -21.612  10.909 -19.394  0.00  0.00    -0.226 OA
ATOM     32  N3  UNL     1     -20.114  10.733 -17.664  0.00  0.00    -0.246 N 
ATOM     33  C24 UNL     1     -19.006  11.339 -16.961  0.00  0.00    +0.098 C 
ATOM     34  C25 UNL     1     -18.261  10.394 -16.042  0.00  0.00    +0.038 C 
ATOM     35  C26 UNL     1     -18.831   8.988 -16.037  0.00  0.00    +0.061 C 
ATOM     36  C27 UNL     1     -20.329   9.084 -15.827  0.00  0.00    +0.038 C 
ATOM     37  C28 UNL     1     -20.994   9.831 -16.962  0.00  0.00    +0.098 C 
BRANCH  35  38
ATOM     38  N4  UNL     1     -18.205   8.185 -14.990  0.00  0.00    -0.274 NA
ATOM     39  C29 UNL     1     -18.978   8.327 -13.758  0.00  0.00    +0.072 C 
ATOM     40  C30 UNL     1     -19.042   7.089 -12.881  0.00  0.00    +0.017 C 
ATOM     41  C31 UNL     1     -17.786   6.249 -12.969  0.00  0.00    +0.003 C 
ATOM     42  C32 UNL     1     -17.398   5.965 -14.406  0.00  0.00    +0.017 C 
ATOM     43  C33 UNL     1     -18.202   6.783 -15.397  0.00  0.00    +0.072 C 
ENDBRANCH  35  38
ENDBRANCH  29  30
ENDBRANCH  22  29
TORSDOF 5
ENDMDL
