MODEL 1
REMARK VINA RESULT:    -8.925      0.000      0.000
REMARK INTER + INTRA:         -11.004
REMARK INTER:                 -11.534
REMARK INTRA:                   0.530
REMARK UNBOUND:                 0.530
REMARK  Name = /tmp/tmpcw_ctn8_/5V90_candidate_0048.pdb
REMARK  5 active torsions:
REMARK  status: ('A' for Active; 'I' for Inactive)
REMARK    1  A    between atoms: C5_5  and  N2_10
REMARK    2  A    between atoms: N2_10  and  C8_11
REMARK    3  A    between atoms: N3_21  and  C24_35
REMARK    4  A    between atoms: N4_24  and  C16_25
REMARK    5  A    between atoms: C20_29  and  N5_31
REMARK                            x       y       z     vdW  Elec       q    Type
REMARK                         _______ _______ _______ _____ _____    ______ ____
ROOT
ATOM      1  C1  UNL     1       2.632  18.153 -22.713  0.00  0.00    +0.038 C 
ATOM      2  C2  UNL     1       2.703  16.857 -23.450  0.00  0.00    +0.051 A 
ATOM      3  C3  UNL     1       1.678  16.139 -23.960  0.00  0.00    +0.076 A 
ATOM      4  C4  UNL     1       1.953  14.776 -24.396  0.00  0.00    +0.104 A 
ATOM      5  C5  UNL     1       3.219  14.326 -24.600  0.00  0.00    +0.141 A 
ATOM      6  N1  UNL     1       4.263  15.179 -24.261  0.00  0.00    -0.281 N 
ATOM      7  C6  UNL     1       4.104  16.375 -23.600  0.00  0.00    +0.259 A 
ATOM      8  O1  UNL     1       5.042  17.042 -23.169  0.00  0.00    -0.267 OA
ATOM      9  C7  UNL     1       5.626  14.771 -24.514  0.00  0.00    +0.135 C 
ATOM     10  C14 UNL     1       0.811  13.829 -24.517  0.00  0.00    +0.268 A 
ATOM     11  O2  UNL     1       0.960  12.610 -24.428  0.00  0.00    -0.267 OA
ATOM     12  N3  UNL     1      -0.433  14.410 -24.654  0.00  0.00    -0.250 N 
ATOM     13  C15 UNL     1      -0.733  15.738 -24.368  0.00  0.00    +0.338 A 
ATOM     14  O3  UNL     1      -1.903  16.131 -24.437  0.00  0.00    -0.246 OA
ATOM     15  N4  UNL     1       0.345  16.591 -24.034  0.00  0.00    -0.260 N 
ENDROOT
BRANCH  15  16
ATOM     16  C16 UNL     1       0.006  17.998 -24.014  0.00  0.00    +0.069 A 
ATOM     17  C17 UNL     1       0.319  18.841 -25.084  0.00  0.00    +0.018 A 
ATOM     18  C18 UNL     1       0.038  20.204 -25.025  0.00  0.00    +0.003 A 
ATOM     19  C19 UNL     1      -0.543  20.747 -23.881  0.00  0.00    +0.017 A 
ATOM     20  C20 UNL     1      -0.841  19.927 -22.797  0.00  0.00    +0.075 A 
ATOM     21  C21 UNL     1      -0.560  18.563 -22.866  0.00  0.00    +0.034 A 
BRANCH  20  22
ATOM     22  N5  UNL     1      -1.423  20.520 -21.670  0.00  0.00    -0.179 NA
ATOM     23  C22 UNL     1      -0.813  21.430 -20.829  0.00  0.00    +0.246 C 
ATOM     24  O4  UNL     1       0.325  21.878 -20.913  0.00  0.00    -0.273 OA
ATOM     25  C23 UNL     1      -1.749  21.837 -19.736  0.00  0.00    +0.097 C 
ENDBRANCH  20  22
ENDBRANCH  15  16
BRANCH  12  26
ATOM     26  C24 UNL     1      -1.548  13.525 -24.913  0.00  0.00    +0.093 C 
ATOM     27  C25 UNL     1      -1.426  12.311 -25.795  0.00  0.00    +0.025 C 
ATOM     28  C26 UNL     1      -2.237  13.480 -26.251  0.00  0.00    +0.025 C 
ENDBRANCH  12  26
BRANCH   5  29
ATOM     29  N2  UNL     1       3.497  13.070 -25.145  0.00  0.00    -0.193 NA
BRANCH  29  30
ATOM     30  C8  UNL     1       4.252  12.077 -24.473  0.00  0.00    +0.099 A 
ATOM     31  C9  UNL     1       5.244  11.378 -25.171  0.00  0.00    +0.156 A 
ATOM     32  C10 UNL     1       5.996  10.380 -24.559  0.00  0.00    +0.037 A 
ATOM     33  C11 UNL     1       5.754  10.070 -23.227  0.00  0.00    +0.032 A 
ATOM     34  C12 UNL     1       4.775  10.746 -22.507  0.00  0.00    +0.007 A 
ATOM     35  C13 UNL     1       4.028  11.743 -23.132  0.00  0.00    +0.019 A 
ATOM     36  I1  UNL     1       6.861   8.599 -22.304  0.00  0.00    -0.042 I 
ATOM     37  F1  UNL     1       5.495  11.674 -26.455  0.00  0.00    -0.203 F 
ENDBRANCH  29  30
ENDBRANCH   5  29
TORSDOF 5
ENDMDL
