MODEL 1
REMARK VINA RESULT:    -7.184      0.000      0.000
REMARK INTER + INTRA:         -16.803
REMARK INTER:                 -12.643
REMARK INTRA:                  -4.160
REMARK UNBOUND:                -4.160
REMARK  Name = /tmp/tmpzt0o7ht6/5V90_candidate_0066.pdb
REMARK  13 active torsions:
REMARK  status: ('A' for Active; 'I' for Inactive)
REMARK    1  A    between atoms: C10_11  and  O11_52
REMARK    2  A    between atoms: C12_13  and  O8_41
REMARK    3  A    between atoms: C18_19  and  O2_20
REMARK    4  A    between atoms: O2_20  and  C19_21
REMARK    5  A    between atoms: C19_21  and  C20_23
REMARK    6  A    between atoms: C20_23  and  C21_24
REMARK    7  A    between atoms: C21_24  and  C22_25
REMARK    8  A    between atoms: C21_24  and  N1_31
REMARK    9  A    between atoms: C28_32  and  O5_34
REMARK   10  A    between atoms: O5_34  and  C29_35
REMARK   11  A    between atoms: O8_41  and  C33_42
REMARK   12  A    between atoms: C33_42  and  C34_44
REMARK   13  A    between atoms: O11_52  and  C41_53
REMARK                            x       y       z     vdW  Elec       q    Type
REMARK                         _______ _______ _______ _____ _____    ______ ____
ROOT
ATOM      1  C1  UNL     1      -8.154  28.011 -21.138  0.00  0.00    +0.029 C 
ATOM      2  C2  UNL     1      -8.806  28.656 -19.961  0.00  0.00    -0.010 C 
ATOM      3  C3  UNL     1      -8.464  28.382 -18.681  0.00  0.00    -0.010 C 
ATOM      4  C4  UNL     1      -7.523  27.257 -18.372  0.00  0.00    +0.227 C 
ATOM      5  C5  UNL     1      -8.207  25.882 -18.436  0.00  0.00    +0.186 C 
ATOM      6  O1  UNL     1      -7.840  25.054 -19.280  0.00  0.00    -0.293 OA
ATOM      7  C6  UNL     1      -9.400  25.593 -17.525  0.00  0.00    +0.089 C 
ATOM      8  C7  UNL     1      -9.615  24.081 -17.442  0.00  0.00    +0.161 C 
ATOM      9  C8  UNL     1     -10.171  23.414 -18.675  0.00  0.00    +0.067 C 
ATOM     10  C9  UNL     1     -11.358  24.137 -19.233  0.00  0.00    +0.157 C 
ATOM     11  C10 UNL     1     -11.418  25.675 -19.178  0.00  0.00    +0.191 C 
ATOM     12  C11 UNL     1     -10.619  26.325 -18.070  0.00  0.00    +0.093 C 
ATOM     13  C12 UNL     1     -11.258  27.551 -17.462  0.00  0.00    +0.201 C 
ATOM     14  C13 UNL     1     -10.731  28.952 -17.840  0.00  0.00    +0.170 C 
ATOM     15  C14 UNL     1      -9.213  29.142 -17.590  0.00  0.00    +0.047 C 
ATOM     16  C15 UNL     1      -8.843  28.819 -16.157  0.00  0.00    +0.007 C 
ATOM     17  C16 UNL     1      -8.829  30.618 -17.704  0.00  0.00    +0.007 C 
ATOM     18  C17 UNL     1     -11.121  29.245 -19.296  0.00  0.00    +0.082 C 
ATOM     19  C18 UNL     1      -9.949  29.604 -20.203  0.00  0.00    +0.189 C 
ATOM     20  O7  UNL     1     -11.456  29.909 -17.060  0.00  0.00    -0.222 OA
ATOM     21  C40 UNL     1     -12.882  25.392 -18.760  0.00  0.00    +0.185 C 
ATOM     22  O10 UNL     1     -12.529  24.031 -18.392  0.00  0.00    -0.349 OA
ATOM     23  O13 UNL     1     -10.414  23.732 -16.323  0.00  0.00    -0.223 OA
ATOM     24  C43 UNL     1      -9.006  26.011 -16.121  0.00  0.00    +0.010 C 
ATOM     25  O14 UNL     1      -6.679  27.499 -17.291  0.00  0.00    -0.211 OA
ENDROOT
BRANCH  19  26
ATOM     26  O2  UNL     1     -10.366  29.582 -21.559  0.00  0.00    -0.446 OA
BRANCH  26  27
ATOM     27  C19 UNL     1     -10.877  30.798 -21.915  0.00  0.00    +0.350 C 
ATOM     28  O3  UNL     1     -11.863  30.960 -22.618  0.00  0.00    -0.247 OA
BRANCH  27  29
ATOM     29  C20 UNL     1     -10.047  31.890 -21.300  0.00  0.00    +0.274 C 
ATOM     30  O6  UNL     1     -10.898  32.854 -20.719  0.00  0.00    -0.209 OA
BRANCH  29  31
ATOM     31  C21 UNL     1      -9.097  32.435 -22.354  0.00  0.00    +0.162 C 
BRANCH  31  32
ATOM     32  C22 UNL     1      -7.801  31.680 -22.324  0.00  0.00    +0.001 A 
ATOM     33  C23 UNL     1      -7.031  31.701 -21.160  0.00  0.00    -0.003 A 
ATOM     34  C24 UNL     1      -5.823  31.009 -21.107  0.00  0.00    -0.000 A 
ATOM     35  C25 UNL     1      -5.379  30.290 -22.214  0.00  0.00    -0.000 A 
ATOM     36  C26 UNL     1      -6.144  30.263 -23.376  0.00  0.00    -0.000 A 
ATOM     37  C27 UNL     1      -7.351  30.953 -23.429  0.00  0.00    -0.003 A 
ENDBRANCH  31  32
BRANCH  31  38
ATOM     38  N1  UNL     1      -8.858  33.853 -22.272  0.00  0.00    -0.163 NA
ATOM     39  C28 UNL     1      -8.659  34.560 -23.429  0.00  0.00    +0.421 C 
ATOM     40  O4  UNL     1      -8.613  34.055 -24.542  0.00  0.00    -0.225 OA
BRANCH  39  41
ATOM     41  O5  UNL     1      -8.522  35.884 -23.158  0.00  0.00    -0.441 OA
BRANCH  41  42
ATOM     42  C29 UNL     1      -7.252  36.336 -22.665  0.00  0.00    +0.138 C 
ATOM     43  C30 UNL     1      -6.169  35.312 -22.900  0.00  0.00    +0.044 C 
ATOM     44  C31 UNL     1      -6.900  37.580 -23.450  0.00  0.00    +0.044 C 
ATOM     45  C32 UNL     1      -7.332  36.713 -21.203  0.00  0.00    +0.044 C 
ENDBRANCH  41  42
ENDBRANCH  39  41
ENDBRANCH  31  38
ENDBRANCH  29  31
ENDBRANCH  27  29
ENDBRANCH  26  27
ENDBRANCH  19  26
BRANCH  13  46
ATOM     46  O8  UNL     1     -11.455  27.366 -16.068  0.00  0.00    -0.446 OA
BRANCH  46  47
ATOM     47  C33 UNL     1     -12.781  27.370 -15.770  0.00  0.00    +0.341 C 
ATOM     48  O9  UNL     1     -13.671  27.708 -16.535  0.00  0.00    -0.245 OA
BRANCH  47  49
ATOM     49  C34 UNL     1     -13.000  26.890 -14.395  0.00  0.00    +0.076 A 
ATOM     50  C35 UNL     1     -12.444  25.666 -14.026  0.00  0.00    +0.006 A 
ATOM     51  C36 UNL     1     -12.628  25.186 -12.732  0.00  0.00    +0.000 A 
ATOM     52  C37 UNL     1     -13.371  25.923 -11.813  0.00  0.00    +0.000 A 
ATOM     53  C38 UNL     1     -13.929  27.145 -12.185  0.00  0.00    +0.000 A 
ATOM     54  C39 UNL     1     -13.744  27.631 -13.476  0.00  0.00    +0.006 A 
ENDBRANCH  47  49
ENDBRANCH  46  47
ENDBRANCH  13  46
BRANCH  11  55
ATOM     55  O11 UNL     1     -11.174  26.400 -20.411  0.00  0.00    -0.451 OA
BRANCH  55  56
ATOM     56  C41 UNL     1     -11.330  25.718 -21.581  0.00  0.00    +0.317 C 
ATOM     57  O12 UNL     1     -12.382  25.516 -22.162  0.00  0.00    -0.250 OA
ATOM     58  C42 UNL     1     -10.002  25.250 -22.064  0.00  0.00    +0.121 C 
ENDBRANCH  55  56
ENDBRANCH  11  55
TORSDOF 13
ENDMDL
