MODEL 1
REMARK VINA RESULT:    -7.844      0.000      0.000
REMARK INTER + INTRA:          -8.666
REMARK INTER:                  -8.302
REMARK INTRA:                  -0.363
REMARK UNBOUND:                -0.363
REMARK  Name = /tmp/tmp9b4ld1pz/5V90_candidate_0041.pdb
REMARK  1 active torsions:
REMARK  status: ('A' for Active; 'I' for Inactive)
REMARK    1  A    between atoms: C11_14  and  C13_17
REMARK                            x       y       z     vdW  Elec       q    Type
REMARK                         _______ _______ _______ _____ _____    ______ ____
ROOT
ATOM      1  C1  UNL     1     -22.984  17.311 -15.930  0.00  0.00    +0.072 C 
ATOM      2  C2  UNL     1     -21.745  17.316 -16.739  0.00  0.00    +0.124 A 
ATOM      3  N1  UNL     1     -20.882  18.311 -16.761  0.00  0.00    -0.229 NA
ATOM      4  C3  UNL     1     -19.876  17.914 -17.598  0.00  0.00    +0.115 A 
ATOM      5  C4  UNL     1     -20.138  16.663 -18.097  0.00  0.00    +0.086 A 
ATOM      6  N2  UNL     1     -21.312  16.250 -17.515  0.00  0.00    -0.295 N 
ATOM      7  C5  UNL     1     -21.949  15.009 -17.759  0.00  0.00    +0.066 A 
ATOM      8  C6  UNL     1     -21.248  13.868 -18.190  0.00  0.00    +0.034 A 
ATOM      9  C7  UNL     1     -21.964  12.701 -18.482  0.00  0.00    +0.014 A 
ATOM     10  C8  UNL     1     -23.345  12.659 -18.331  0.00  0.00    +0.058 A 
ATOM     11  C9  UNL     1     -24.036  13.769 -17.865  0.00  0.00    +0.013 A 
ATOM     12  C10 UNL     1     -23.335  14.936 -17.580  0.00  0.00    +0.018 A 
ATOM     13 CL1  UNL     1     -24.192  11.214 -18.689  0.00  0.00    -0.082 Cl
ATOM     14  C11 UNL     1     -19.757  13.748 -18.212  0.00  0.00    +0.080 C 
ATOM     15  N3  UNL     1     -18.931  14.660 -18.597  0.00  0.00    -0.264 NA
ATOM     16  C12 UNL     1     -19.463  15.890 -19.141  0.00  0.00    +0.171 C 
ENDROOT
BRANCH  14  17
ATOM     17  C13 UNL     1     -19.161  12.484 -17.713  0.00  0.00    +0.045 A 
ATOM     18  C14 UNL     1     -18.724  12.420 -16.388  0.00  0.00    +0.004 A 
ATOM     19  C15 UNL     1     -18.130  11.254 -15.913  0.00  0.00    +0.000 A 
ATOM     20  C16 UNL     1     -17.967  10.157 -16.759  0.00  0.00    +0.002 A 
ATOM     21  C17 UNL     1     -18.401  10.220 -18.081  0.00  0.00    +0.030 A 
ATOM     22  C18 UNL     1     -18.994  11.386 -18.556  0.00  0.00    +0.142 A 
ATOM     23  F1  UNL     1     -19.446  11.410 -19.818  0.00  0.00    -0.204 F 
ENDBRANCH  14  17
TORSDOF 1
ENDMDL
