MODEL 1
REMARK VINA RESULT:    -9.368      0.000      0.000
REMARK INTER + INTRA:         -10.947
REMARK INTER:                 -10.463
REMARK INTRA:                  -0.484
REMARK UNBOUND:                -0.484
REMARK  Name = /tmp/tmpbzre0ms3/5V90_candidate_0044.pdb
REMARK  2 active torsions:
REMARK  status: ('A' for Active; 'I' for Inactive)
REMARK    1  A    between atoms: C12_16  and  C13_18
REMARK    2  A    between atoms: C15_20  and  C19_24
REMARK                            x       y       z     vdW  Elec       q    Type
REMARK                         _______ _______ _______ _____ _____    ______ ____
ROOT
ATOM      1  C1  UNL     1     -26.818   6.577 -21.177  0.00  0.00    +0.024 C 
ATOM      2  C2  UNL     1     -27.522   7.326 -20.062  0.00  0.00    +0.104 C 
ATOM      3  C3  UNL     1     -28.363   6.302 -19.297  0.00  0.00    +0.162 C 
ATOM      4  O1  UNL     1     -28.985   6.877 -18.147  0.00  0.00    -0.350 OA
ATOM      5  C4  UNL     1     -27.950   7.321 -17.268  0.00  0.00    +0.164 C 
ATOM      6  C5  UNL     1     -27.129   8.423 -17.927  0.00  0.00    +0.124 C 
ATOM      7  N1  UNL     1     -26.519   7.949 -19.178  0.00  0.00    -0.290 N 
ATOM      8  C6  UNL     1     -25.977   9.121 -19.786  0.00  0.00    +0.138 A 
ATOM      9  N2  UNL     1     -26.641   9.697 -20.800  0.00  0.00    -0.199 NA
ATOM     10  C7  UNL     1     -26.132  10.802 -21.360  0.00  0.00    +0.223 A 
ATOM     11  N3  UNL     1     -24.984  11.352 -20.952  0.00  0.00    -0.194 NA
ATOM     12  C8  UNL     1     -24.311  10.788 -19.963  0.00  0.00    +0.168 A 
ATOM     13  C9  UNL     1     -24.770   9.647 -19.327  0.00  0.00    +0.068 A 
ATOM     14  C10 UNL     1     -24.000   9.092 -18.295  0.00  0.00    +0.007 A 
ATOM     15  C11 UNL     1     -22.809   9.684 -17.920  0.00  0.00    +0.019 A 
ATOM     16  C12 UNL     1     -22.413  10.826 -18.596  0.00  0.00    +0.083 A 
ATOM     17  N4  UNL     1     -23.159  11.360 -19.598  0.00  0.00    -0.226 NA
ATOM     18  N6  UNL     1     -26.845  11.439 -22.391  0.00  0.00    -0.275 N 
ATOM     19  C21 UNL     1     -25.853  11.993 -23.311  0.00  0.00    +0.126 C 
ATOM     20  C22 UNL     1     -26.487  12.475 -24.607  0.00  0.00    +0.164 C 
ATOM     21  O3  UNL     1     -27.223  11.415 -25.220  0.00  0.00    -0.350 OA
ATOM     22  C23 UNL     1     -28.316  11.107 -24.359  0.00  0.00    +0.162 C 
ATOM     23  C24 UNL     1     -27.853  10.570 -23.003  0.00  0.00    +0.105 C 
ATOM     24  C25 UNL     1     -29.092  10.526 -22.128  0.00  0.00    +0.024 C 
ENDROOT
BRANCH  16  25
ATOM     25  C13 UNL     1     -21.166  11.526 -18.269  0.00  0.00    +0.018 A 
ATOM     26  C14 UNL     1     -21.016  12.896 -18.518  0.00  0.00    +0.006 A 
ATOM     27  C15 UNL     1     -19.832  13.567 -18.208  0.00  0.00    +0.055 A 
ATOM     28  C16 UNL     1     -18.767  12.873 -17.638  0.00  0.00    +0.005 A 
ATOM     29  C17 UNL     1     -18.892  11.512 -17.381  0.00  0.00    +0.000 A 
ATOM     30  C18 UNL     1     -20.079  10.852 -17.694  0.00  0.00    +0.002 A 
BRANCH  27  31
ATOM     31  C19 UNL     1     -19.677  15.013 -18.472  0.00  0.00    +0.265 C 
ATOM     32  O2  UNL     1     -18.732  15.431 -19.133  0.00  0.00    -0.268 OA
ATOM     33  N5  UNL     1     -20.655  15.811 -17.926  0.00  0.00    -0.200 NA
ATOM     34  C20 UNL     1     -20.603  17.234 -18.119  0.00  0.00    +0.139 C 
ENDBRANCH  27  31
ENDBRANCH  16  25
TORSDOF 2
ENDMDL
