MODEL 1
REMARK VINA RESULT:    -9.010      0.000      0.000
REMARK INTER + INTRA:         -12.767
REMARK INTER:                 -11.117
REMARK INTRA:                  -1.650
REMARK UNBOUND:                -1.650
REMARK  Name = /tmp/tmp8uvrqah1/5V90_candidate_0030.pdb
REMARK  4 active torsions:
REMARK  status: ('A' for Active; 'I' for Inactive)
REMARK    1  A    between atoms: C3_3  and  N2_11
REMARK    2  A    between atoms: C4_4  and  C7_8
REMARK    3  A    between atoms: C11_14  and  C27_37
REMARK    4  A    between atoms: C23_31  and  C24_33
REMARK                            x       y       z     vdW  Elec       q    Type
REMARK                         _______ _______ _______ _____ _____    ______ ____
ROOT
ATOM      1  N2  UNL     1     -24.182  12.343 -18.399  0.00  0.00    -0.257 N 
ATOM      2  C10 UNL     1     -24.882  13.440 -17.845  0.00  0.00    +0.151 A 
ATOM      3  N3  UNL     1     -26.222  13.321 -17.626  0.00  0.00    -0.227 NA
ATOM      4  C11 UNL     1     -26.916  14.363 -17.106  0.00  0.00    +0.099 A 
ATOM      5  C12 UNL     1     -26.292  15.553 -16.777  0.00  0.00    +0.076 A 
ATOM      6  C13 UNL     1     -24.925  15.642 -16.992  0.00  0.00    +0.017 A 
ATOM      7  C14 UNL     1     -24.173  14.590 -17.518  0.00  0.00    +0.050 A 
ATOM      8  C15 UNL     1     -22.709  14.688 -17.722  0.00  0.00    +0.070 A 
ATOM      9  C16 UNL     1     -22.062  13.630 -18.268  0.00  0.00    +0.125 A 
ATOM     10  C17 UNL     1     -22.813  12.351 -18.607  0.00  0.00    +0.281 A 
ATOM     11  O1  UNL     1     -22.210  11.378 -19.062  0.00  0.00    -0.265 OA
ATOM     12  N4  UNL     1     -20.693  13.707 -18.545  0.00  0.00    -0.251 N 
ATOM     13  C18 UNL     1     -19.902  14.809 -18.251  0.00  0.00    +0.249 C 
ATOM     14  O2  UNL     1     -18.716  14.876 -18.585  0.00  0.00    -0.273 OA
ATOM     15  C19 UNL     1     -20.542  15.895 -17.408  0.00  0.00    +0.170 C 
ATOM     16  N5  UNL     1     -22.024  15.872 -17.395  0.00  0.00    -0.297 N 
ATOM     17  C20 UNL     1     -22.546  16.942 -16.542  0.00  0.00    +0.113 C 
ATOM     18  C21 UNL     1     -22.080  18.313 -17.026  0.00  0.00    +0.115 C 
ATOM     19  N6  UNL     1     -20.638  18.378 -17.198  0.00  0.00    -0.272 N 
ATOM     20  C22 UNL     1     -20.000  17.249 -17.860  0.00  0.00    +0.123 C 
ATOM     21  C23 UNL     1     -19.942  19.568 -17.178  0.00  0.00    +0.249 C 
ATOM     22  O3  UNL     1     -18.771  19.668 -17.530  0.00  0.00    -0.270 OA
ATOM     23  C26 UNL     1     -20.016  12.646 -19.254  0.00  0.00    +0.120 C 
ATOM     24 CL1  UNL     1     -27.097  16.904 -16.087  0.00  0.00    -0.081 Cl
ENDROOT
BRANCH   4  25
ATOM     25  C27 UNL     1     -28.345  14.108 -16.938  0.00  0.00    +0.085 A 
ATOM     26  C28 UNL     1     -29.261  14.295 -17.977  0.00  0.00    +0.199 A 
ATOM     27  C29 UNL     1     -30.625  14.065 -17.807  0.00  0.00    +0.042 A 
ATOM     28  C30 UNL     1     -31.100  13.638 -16.572  0.00  0.00    +0.006 A 
ATOM     29  C31 UNL     1     -30.215  13.444 -15.517  0.00  0.00    +0.030 A 
ATOM     30  C32 UNL     1     -28.855  13.679 -15.705  0.00  0.00    +0.145 A 
ATOM     31  F1  UNL     1     -28.023  13.490 -14.669  0.00  0.00    -0.204 F 
ATOM     32  O4  UNL     1     -28.838  14.701 -19.213  0.00  0.00    -0.286 OA
ENDBRANCH   4  25
BRANCH   1  35
ATOM     33  C1  UNL     1     -24.544  10.239 -16.365  0.00  0.00    +0.033 C 
ATOM     34  C2  UNL     1     -25.101  10.148 -17.745  0.00  0.00    -0.003 A 
ATOM     35  C3  UNL     1     -24.940  11.169 -18.697  0.00  0.00    +0.078 A 
ATOM     36  C4  UNL     1     -25.567  11.001 -19.945  0.00  0.00    +0.074 A 
ATOM     37  N1  UNL     1     -26.287   9.893 -20.272  0.00  0.00    -0.247 NA
ATOM     38  C5  UNL     1     -26.407   8.936 -19.329  0.00  0.00    +0.098 A 
ATOM     39  C6  UNL     1     -25.843   9.015 -18.068  0.00  0.00    +0.018 A 
BRANCH  36  40
ATOM     40  C7  UNL     1     -25.401  12.032 -21.022  0.00  0.00    +0.042 C 
ATOM     41  C8  UNL     1     -25.280  11.372 -22.374  0.00  0.00    +0.006 C 
ATOM     42  C9  UNL     1     -26.544  13.019 -21.024  0.00  0.00    +0.006 C 
ENDBRANCH  36  40
ENDBRANCH   1  35
BRANCH  21  43
ATOM     43  C24 UNL     1     -20.726  20.722 -16.675  0.00  0.00    +0.058 C 
ATOM     44  C25 UNL     1     -20.903  21.762 -17.491  0.00  0.00    +0.005 C 
ENDBRANCH  21  43
TORSDOF 4
ENDMDL
