MODEL 1
REMARK VINA RESULT:    -6.969      0.000      0.000
REMARK INTER + INTRA:         -11.697
REMARK INTER:                  -9.414
REMARK INTRA:                  -2.283
REMARK UNBOUND:                -2.283
REMARK  Name = /tmp/tmp1na19neo/5V90_candidate_0063.pdb
REMARK  6 active torsions:
REMARK  status: ('A' for Active; 'I' for Inactive)
REMARK    1  A    between atoms: C3_3  and  N2_11
REMARK    2  A    between atoms: C4_4  and  C7_8
REMARK    3  A    between atoms: C11_14  and  C26_35
REMARK    4  A    between atoms: C15_18  and  N5_24
REMARK    5  A    between atoms: C16_19  and  C18_22
REMARK    6  A    between atoms: C23_30  and  C24_32
REMARK                            x       y       z     vdW  Elec       q    Type
REMARK                         _______ _______ _______ _____ _____    ______ ____
ROOT
ATOM      1  N2  UNL     1     -15.399   0.603 -18.494  0.00  0.00    -0.258 N 
ATOM      2  C10 UNL     1     -14.355  -0.227 -18.960  0.00  0.00    +0.151 A 
ATOM      3  N3  UNL     1     -14.134  -0.320 -20.298  0.00  0.00    -0.227 NA
ATOM      4  C11 UNL     1     -13.162  -1.148 -20.758  0.00  0.00    +0.097 A 
ATOM      5  C12 UNL     1     -12.394  -1.919 -19.900  0.00  0.00    +0.076 A 
ATOM      6  C13 UNL     1     -12.639  -1.811 -18.539  0.00  0.00    +0.017 A 
ATOM      7  C14 UNL     1     -13.617  -0.950 -18.030  0.00  0.00    +0.050 A 
ATOM      8  C15 UNL     1     -13.884  -0.860 -16.570  0.00  0.00    +0.065 A 
ATOM      9  C16 UNL     1     -14.950  -0.118 -16.187  0.00  0.00    +0.138 A 
ATOM     10  C17 UNL     1     -15.790   0.638 -17.167  0.00  0.00    +0.277 A 
ATOM     11  O1  UNL     1     -16.763   1.277 -16.765  0.00  0.00    -0.266 OA
ATOM     12 CL1  UNL     1     -11.174  -3.006 -20.426  0.00  0.00    -0.081 Cl
ENDROOT
BRANCH   4  13
ATOM     13  C26 UNL     1     -13.012  -1.135 -22.214  0.00  0.00    +0.067 A 
ATOM     14  C27 UNL     1     -12.240  -0.157 -22.874  0.00  0.00    +0.122 A 
ATOM     15  C28 UNL     1     -12.105  -0.206 -24.267  0.00  0.00    +0.186 A 
ATOM     16  C29 UNL     1     -12.721  -1.206 -25.010  0.00  0.00    +0.198 A 
ATOM     17  C30 UNL     1     -13.481  -2.169 -24.369  0.00  0.00    +0.197 A 
ATOM     18  C31 UNL     1     -13.624  -2.134 -22.987  0.00  0.00    +0.173 A 
ATOM     19  F1  UNL     1     -14.364  -3.079 -22.384  0.00  0.00    -0.202 F 
ATOM     20  F2  UNL     1     -14.081  -3.134 -25.081  0.00  0.00    -0.199 F 
ATOM     21  F3  UNL     1     -12.585  -1.232 -26.342  0.00  0.00    -0.199 F 
ATOM     22  F4  UNL     1     -11.378   0.728 -24.901  0.00  0.00    -0.200 F 
ATOM     23  N7  UNL     1     -11.607   0.881 -22.153  0.00  0.00    -0.126 NA
ENDBRANCH   4  13
BRANCH   8  24
ATOM     24  N5  UNL     1     -13.018  -1.595 -15.741  0.00  0.00    -0.303 N 
ATOM     25  C19 UNL     1     -13.420  -2.840 -15.063  0.00  0.00    +0.112 C 
ATOM     26  C20 UNL     1     -12.235  -3.786 -14.894  0.00  0.00    +0.115 C 
ATOM     27  N6  UNL     1     -11.066  -3.140 -14.321  0.00  0.00    -0.273 N 
ATOM     28  C21 UNL     1     -10.733  -1.812 -14.813  0.00  0.00    +0.115 C 
ATOM     29  C22 UNL     1     -11.957  -0.913 -14.980  0.00  0.00    +0.112 C 
ATOM     30  C23 UNL     1     -10.139  -3.961 -13.714  0.00  0.00    +0.249 C 
ATOM     31  O2  UNL     1     -10.335  -5.152 -13.500  0.00  0.00    -0.270 OA
BRANCH  30  32
ATOM     32  C24 UNL     1      -8.884  -3.274 -13.324  0.00  0.00    +0.058 C 
ATOM     33  C25 UNL     1      -7.844  -4.028 -12.959  0.00  0.00    +0.005 C 
ENDBRANCH  30  32
ENDBRANCH   8  24
BRANCH   1  36
ATOM     34  C1  UNL     1     -17.608  -0.777 -19.805  0.00  0.00    +0.033 C 
ATOM     35  C2  UNL     1     -17.232   0.633 -20.115  0.00  0.00    -0.003 A 
ATOM     36  C3  UNL     1     -16.163   1.287 -19.481  0.00  0.00    +0.078 A 
ATOM     37  C4  UNL     1     -15.893   2.620 -19.847  0.00  0.00    +0.074 A 
ATOM     38  N1  UNL     1     -16.605   3.271 -20.805  0.00  0.00    -0.247 NA
ATOM     39  C5  UNL     1     -17.615   2.600 -21.398  0.00  0.00    +0.098 A 
ATOM     40  C6  UNL     1     -17.968   1.299 -21.089  0.00  0.00    +0.018 A 
BRANCH  37  41
ATOM     41  C7  UNL     1     -14.860   3.480 -19.199  0.00  0.00    +0.042 C 
ATOM     42  C8  UNL     1     -13.460   3.337 -19.734  0.00  0.00    +0.006 C 
ATOM     43  C9  UNL     1     -15.270   4.917 -19.031  0.00  0.00    +0.006 C 
ENDBRANCH  37  41
ENDBRANCH   1  36
BRANCH   9  44
ATOM     44  C18 UNL     1     -15.313   0.039 -14.819  0.00  0.00    +0.107 C 
ATOM     45  N4  UNL     1     -15.590   0.111 -13.693  0.00  0.00    -0.191 NA
ENDBRANCH   9  44
TORSDOF 6
ENDMDL
