MODEL 1
REMARK VINA RESULT:    -5.996      0.000      0.000
REMARK INTER + INTRA:         -10.712
REMARK INTER:                 -10.203
REMARK INTRA:                  -0.509
REMARK UNBOUND:                -0.509
REMARK  Name = /tmp/tmp__3cfj_q/5V90_candidate_0023.pdb
REMARK  12 active torsions:
REMARK  status: ('A' for Active; 'I' for Inactive)
REMARK    1  A    between atoms: C1_1  and  C2_2
REMARK    2  A    between atoms: C1_1  and  N1_4
REMARK    3  A    between atoms: N1_4  and  C3_5
REMARK    4  A    between atoms: C5_7  and  C13_21
REMARK    5  A    between atoms: C7_9  and  C9_12
REMARK    6  A    between atoms: N2_14  and  C10_15
REMARK    7  A    between atoms: C10_15  and  C11_16
REMARK    8  A    between atoms: C11_16  and  C12_17
REMARK    9  A    between atoms: N3_23  and  C14_24
REMARK   10  A    between atoms: C14_24  and  C15_25
REMARK   11  A    between atoms: C15_25  and  C16_26
REMARK   12  A    between atoms: C17_30  and  C18_32
REMARK                            x       y       z     vdW  Elec       q    Type
REMARK                         _______ _______ _______ _____ _____    ______ ____
ROOT
ATOM      1  C3  UNL     1       3.288  15.061 -24.321  0.00  0.00    +0.065 A 
ATOM      2  C4  UNL     1       3.067  16.343 -23.760  0.00  0.00    +0.049 A 
ATOM      3  C5  UNL     1       1.758  16.767 -23.446  0.00  0.00    +0.067 A 
ATOM      4  C6  UNL     1       0.661  15.916 -23.672  0.00  0.00    +0.040 A 
ATOM      5  C7  UNL     1       0.878  14.637 -24.217  0.00  0.00    +0.067 A 
ATOM      6  C8  UNL     1       2.181  14.206 -24.545  0.00  0.00    +0.049 A 
ATOM      7  I1  UNL     1       2.480  12.219 -25.305  0.00  0.00    -0.041 I 
ATOM      8  I2  UNL     1      -1.325  16.570 -23.208  0.00  0.00    -0.042 I 
ATOM      9  I3  UNL     1       4.721  17.682 -23.452  0.00  0.00    -0.041 I 
ENDROOT
BRANCH   1  10
ATOM     10  N1  UNL     1       4.615  14.637 -24.613  0.00  0.00    -0.253 N 
ATOM     11  C17 UNL     1       5.157  14.917 -25.868  0.00  0.00    +0.263 C 
ATOM     12  O8  UNL     1       4.504  15.415 -26.786  0.00  0.00    -0.272 OA
BRANCH  11  13
ATOM     13  C18 UNL     1       6.616  14.553 -26.057  0.00  0.00    +0.267 C 
ATOM     14  O9  UNL     1       6.713  13.244 -26.593  0.00  0.00    -0.210 OA
ENDBRANCH  11  13
BRANCH  10  15
ATOM     15  C1  UNL     1       5.448  14.235 -23.488  0.00  0.00    +0.134 C 
BRANCH  15  16
ATOM     16  C2  UNL     1       4.642  13.647 -22.347  0.00  0.00    +0.204 C 
ATOM     17  O1  UNL     1       4.861  12.246 -22.299  0.00  0.00    -0.218 OA
ENDBRANCH  15  16
ENDBRANCH  10  15
ENDBRANCH   1  10
BRANCH   5  18
ATOM     18  C9  UNL     1      -0.271  13.754 -24.484  0.00  0.00    +0.266 C 
ATOM     19  O2  UNL     1      -0.641  12.953 -23.635  0.00  0.00    -0.268 OA
ATOM     20  N2  UNL     1      -0.828  13.924 -25.729  0.00  0.00    -0.199 NA
BRANCH  20  21
ATOM     21  C10 UNL     1      -1.981  13.158 -26.141  0.00  0.00    +0.151 C 
BRANCH  21  22
ATOM     22  C11 UNL     1      -1.610  12.016 -27.064  0.00  0.00    +0.206 C 
ATOM     23  O4  UNL     1      -1.088  12.556 -28.269  0.00  0.00    -0.218 OA
BRANCH  22  24
ATOM     24  C12 UNL     1      -2.811  11.147 -27.368  0.00  0.00    +0.217 C 
ATOM     25  O3  UNL     1      -2.491   9.769 -27.255  0.00  0.00    -0.218 OA
ENDBRANCH  22  24
ENDBRANCH  21  22
ENDBRANCH  20  21
ENDBRANCH   5  18
BRANCH   3  26
ATOM     26  C13 UNL     1       1.538  18.106 -22.871  0.00  0.00    +0.266 C 
ATOM     27  O5  UNL     1       1.680  18.304 -21.672  0.00  0.00    -0.268 OA
ATOM     28  N3  UNL     1       1.154  19.051 -23.794  0.00  0.00    -0.199 NA
BRANCH  28  29
ATOM     29  C14 UNL     1       0.894  20.406 -23.377  0.00  0.00    +0.151 C 
BRANCH  29  30
ATOM     30  C15 UNL     1       1.030  21.391 -24.518  0.00  0.00    +0.206 C 
ATOM     31  O7  UNL     1      -0.029  21.136 -25.431  0.00  0.00    -0.218 OA
BRANCH  30  32
ATOM     32  C16 UNL     1       2.359  21.180 -25.209  0.00  0.00    +0.217 C 
ATOM     33  O6  UNL     1       3.046  22.418 -25.312  0.00  0.00    -0.218 OA
ENDBRANCH  30  32
ENDBRANCH  29  30
ENDBRANCH  28  29
ENDBRANCH   3  26
TORSDOF 12
ENDMDL
