MODEL 1
REMARK VINA RESULT:    -7.965      0.000      0.000
REMARK INTER + INTRA:         -12.543
REMARK INTER:                 -10.758
REMARK INTRA:                  -1.785
REMARK UNBOUND:                -1.785
REMARK  Name = /tmp/tmpxrpwdgvu/5V90_candidate_0028.pdb
REMARK  6 active torsions:
REMARK  status: ('A' for Active; 'I' for Inactive)
REMARK    1  A    between atoms: C7_7  and  O13_64
REMARK    2  A    between atoms: C18_19  and  O12_59
REMARK    3  A    between atoms: C25_27  and  C35_44
REMARK    4  A    between atoms: C35_44  and  C37_46
REMARK    5  A    between atoms: C37_46  and  C38_47
REMARK    6  A    between atoms: C42_51  and  O9_53
REMARK                            x       y       z     vdW  Elec       q    Type
REMARK                         _______ _______ _______ _____ _____    ______ ____
ROOT
ATOM      1  C1  UNL     1     -20.550  19.668 -27.589  0.00  0.00    +0.006 C 
ATOM      2  C2  UNL     1     -21.294  19.491 -28.889  0.00  0.00    +0.062 C 
ATOM      3  C3  UNL     1     -20.349  19.266 -30.041  0.00  0.00    +0.008 C 
ATOM      4  C4  UNL     1     -20.205  20.481 -30.920  0.00  0.00    +0.030 C 
ATOM      5  C5  UNL     1     -21.519  21.161 -31.262  0.00  0.00    +0.121 C 
ATOM      6  C6  UNL     1     -21.826  20.989 -32.733  0.00  0.00    +0.063 C 
ATOM      7  C7  UNL     1     -20.792  21.671 -33.603  0.00  0.00    +0.136 C 
ATOM      8  C8  UNL     1     -20.485  21.006 -34.907  0.00  0.00    -0.017 C 
ATOM      9  C9  UNL     1     -21.143  19.920 -35.333  0.00  0.00    -0.006 C 
ATOM     10  C10 UNL     1     -20.892  19.177 -36.530  0.00  0.00    -0.001 C 
ATOM     11  C11 UNL     1     -21.432  19.486 -37.710  0.00  0.00    -0.000 C 
ATOM     12  C12 UNL     1     -21.183  18.684 -38.868  0.00  0.00    -0.005 C 
ATOM     13  C13 UNL     1     -21.781  18.917 -40.038  0.00  0.00    -0.026 C 
ATOM     14  C14 UNL     1     -21.597  18.151 -41.299  0.00  0.00    +0.022 C 
ATOM     15  C15 UNL     1     -20.496  17.113 -41.235  0.00  0.00    +0.012 C 
ATOM     16  C16 UNL     1     -21.054  15.733 -41.498  0.00  0.00    +0.061 C 
ATOM     17  C17 UNL     1     -21.440  15.059 -40.202  0.00  0.00    +0.180 C 
ATOM     18  O1  UNL     1     -20.685  15.051 -39.228  0.00  0.00    -0.293 OA
ATOM     19  C18 UNL     1     -22.762  14.311 -40.213  0.00  0.00    +0.206 C 
ATOM     20  C19 UNL     1     -23.319  14.164 -38.799  0.00  0.00    +0.204 C 
ATOM     21  C20 UNL     1     -24.041  15.345 -38.228  0.00  0.00    -0.015 C 
ATOM     22  C21 UNL     1     -23.502  15.998 -37.192  0.00  0.00    -0.025 C 
ATOM     23  C22 UNL     1     -23.972  17.174 -36.419  0.00  0.00    +0.079 C 
ATOM     24  C23 UNL     1     -24.739  16.821 -35.154  0.00  0.00    +0.158 C 
ATOM     25  O2  UNL     1     -24.965  15.668 -34.794  0.00  0.00    -0.296 OA
ATOM     26  C24 UNL     1     -25.173  18.004 -34.323  0.00  0.00    +0.108 C 
ATOM     27  C25 UNL     1     -26.570  17.894 -33.748  0.00  0.00    +0.176 C 
ATOM     28  O3  UNL     1     -26.520  17.455 -32.397  0.00  0.00    -0.451 OA
ATOM     29  C26 UNL     1     -26.455  18.514 -31.539  0.00  0.00    +0.335 C 
ATOM     30  O4  UNL     1     -26.448  19.690 -31.889  0.00  0.00    -0.248 OA
ATOM     31  C27 UNL     1     -26.444  18.018 -30.095  0.00  0.00    +0.175 C 
ATOM     32  C28 UNL     1     -27.866  17.723 -29.650  0.00  0.00    +0.031 C 
ATOM     33  C29 UNL     1     -28.641  18.974 -29.288  0.00  0.00    +0.004 C 
ATOM     34  C30 UNL     1     -27.874  19.815 -28.291  0.00  0.00    +0.022 C 
ATOM     35  C31 UNL     1     -26.491  20.147 -28.810  0.00  0.00    +0.094 C 
ATOM     36  N1  UNL     1     -25.775  18.947 -29.197  0.00  0.00    -0.265 N 
ATOM     37  C32 UNL     1     -24.388  18.894 -29.159  0.00  0.00    +0.289 C 
ATOM     38  O5  UNL     1     -23.735  17.982 -29.654  0.00  0.00    -0.267 OA
ATOM     39  C33 UNL     1     -23.660  20.038 -28.456  0.00  0.00    +0.279 C 
ATOM     40  O6  UNL     1     -24.106  20.479 -27.400  0.00  0.00    -0.281 OA
ATOM     41  C34 UNL     1     -22.386  20.518 -29.153  0.00  0.00    +0.279 C 
ATOM     42  O7  UNL     1     -22.635  20.634 -30.553  0.00  0.00    -0.329 OA
ATOM     43  O8  UNL     1     -22.026  21.778 -28.600  0.00  0.00    -0.187 OA
ATOM     44  C45 UNL     1     -24.723  18.196 -37.239  0.00  0.00    +0.012 C 
ATOM     45  C46 UNL     1     -25.369  15.689 -38.811  0.00  0.00    +0.029 C 
ATOM     46  O11 UNL     1     -24.161  13.018 -38.742  0.00  0.00    -0.216 OA
ATOM     47  C48 UNL     1     -20.015  14.878 -42.188  0.00  0.00    +0.008 C 
ATOM     48  C49 UNL     1     -21.302  19.116 -42.423  0.00  0.00    +0.005 C 
ATOM     49  C50 UNL     1     -19.337  21.587 -35.662  0.00  0.00    +0.029 C 
ENDROOT
BRANCH  27  50
ATOM     50  C35 UNL     1     -27.584  17.138 -34.578  0.00  0.00    +0.041 C 
ATOM     51  C36 UNL     1     -28.140  17.966 -35.708  0.00  0.00    +0.004 C 
BRANCH  50  52
ATOM     52  C37 UNL     1     -28.633  16.360 -33.815  0.00  0.00    +0.004 C 
BRANCH  52  53
ATOM     53  C38 UNL     1     -29.097  15.032 -34.368  0.00  0.00    +0.003 C 
ATOM     54  C39 UNL     1     -29.838  14.188 -33.356  0.00  0.00    +0.003 C 
ATOM     55  C40 UNL     1     -30.356  12.908 -33.977  0.00  0.00    +0.035 C 
ATOM     56  C41 UNL     1     -29.241  12.124 -34.638  0.00  0.00    +0.179 C 
ATOM     57  C42 UNL     1     -28.525  12.979 -35.676  0.00  0.00    +0.146 C 
ATOM     58  C43 UNL     1     -28.004  14.265 -35.070  0.00  0.00    +0.032 C 
ATOM     59  O10 UNL     1     -29.817  10.980 -35.249  0.00  0.00    -0.221 OA
BRANCH  57  60
ATOM     60  O9  UNL     1     -27.488  12.302 -36.373  0.00  0.00    -0.351 OA
ATOM     61  C44 UNL     1     -26.224  12.510 -35.746  0.00  0.00    +0.174 C 
ENDBRANCH  57  60
ENDBRANCH  52  53
ENDBRANCH  50  52
ENDBRANCH  27  50
BRANCH  19  62
ATOM     62  O12 UNL     1     -23.684  14.800 -41.173  0.00  0.00    -0.343 OA
ATOM     63  C47 UNL     1     -24.002  13.731 -42.054  0.00  0.00    +0.175 C 
ENDBRANCH  19  62
BRANCH   7  64
ATOM     64  O13 UNL     1     -21.031  23.060 -33.748  0.00  0.00    -0.349 OA
ATOM     65  C51 UNL     1     -22.353  23.306 -34.212  0.00  0.00    +0.174 C 
ENDBRANCH   7  64
TORSDOF 6
ENDMDL
