MODEL 1
REMARK VINA RESULT:    -7.903      0.000      0.000
REMARK INTER + INTRA:         -12.540
REMARK INTER:                 -11.137
REMARK INTRA:                  -1.402
REMARK UNBOUND:                -1.402
REMARK  Name = /tmp/tmpyi4_e891/5V90_candidate_0100.pdb
REMARK  7 active torsions:
REMARK  status: ('A' for Active; 'I' for Inactive)
REMARK    1  A    between atoms: C5_6  and  C6_7
REMARK    2  A    between atoms: C6_7  and  O1_8
REMARK    3  A    between atoms: O1_8  and  C7_9
REMARK    4  A    between atoms: N3_15  and  C13_17
REMARK    5  A    between atoms: C26_34  and  C28_36
REMARK    6  A    between atoms: C28_36  and  C29_37
REMARK    7  A    between atoms: C30_39  and  C31_41
REMARK                            x       y       z     vdW  Elec       q    Type
REMARK                         _______ _______ _______ _____ _____    ______ ____
ROOT
ATOM      1  C7  UNL     1     -23.794  12.822 -18.897  0.00  0.00    +0.321 A 
ATOM      2  N2  UNL     1     -23.651  11.569 -19.347  0.00  0.00    -0.197 NA
ATOM      3  C8  UNL     1     -24.754  10.798 -19.296  0.00  0.00    +0.082 A 
ATOM      4  C9  UNL     1     -25.964  11.252 -18.786  0.00  0.00    +0.027 A 
ATOM      5  C10 UNL     1     -27.176  10.377 -18.811  0.00  0.00    +0.052 C 
ATOM      6  C11 UNL     1     -26.834   8.905 -18.951  0.00  0.00    +0.096 C 
ATOM      7  N3  UNL     1     -25.888   8.721 -20.053  0.00  0.00    -0.302 N 
ATOM      8  C12 UNL     1     -24.604   9.378 -19.784  0.00  0.00    +0.137 C 
ATOM      9  C23 UNL     1     -26.001  12.559 -18.323  0.00  0.00    +0.134 A 
ATOM     10  N4  UNL     1     -24.916  13.352 -18.397  0.00  0.00    -0.180 NA
ATOM     11  N5  UNL     1     -27.188  13.104 -17.780  0.00  0.00    -0.290 N 
ATOM     12  C24 UNL     1     -27.605  12.335 -16.605  0.00  0.00    +0.114 C 
ATOM     13  C25 UNL     1     -28.497  13.144 -15.667  0.00  0.00    +0.115 C 
ATOM     14  N6  UNL     1     -27.872  14.385 -15.232  0.00  0.00    -0.271 N 
ATOM     15  C26 UNL     1     -26.894  14.977 -16.130  0.00  0.00    +0.111 C 
ATOM     16  C27 UNL     1     -27.021  14.547 -17.582  0.00  0.00    +0.113 C 
ATOM     17  C30 UNL     1     -28.158  15.040 -14.052  0.00  0.00    +0.277 C 
ATOM     18  O2  UNL     1     -27.592  16.095 -13.763  0.00  0.00    -0.267 OA
ENDROOT
BRANCH   7  19
ATOM     19  C13 UNL     1     -25.758   7.329 -20.295  0.00  0.00    +0.049 A 
ATOM     20  C14 UNL     1     -24.732   6.620 -19.638  0.00  0.00    +0.015 A 
ATOM     21  C15 UNL     1     -24.585   5.249 -19.764  0.00  0.00    +0.001 A 
ATOM     22  C16 UNL     1     -25.477   4.551 -20.559  0.00  0.00    +0.000 A 
ATOM     23  C17 UNL     1     -26.492   5.209 -21.244  0.00  0.00    +0.002 A 
ATOM     24  C18 UNL     1     -26.669   6.620 -21.160  0.00  0.00    +0.024 A 
ATOM     25  C19 UNL     1     -27.727   7.146 -21.969  0.00  0.00    +0.059 A 
ATOM     26  C20 UNL     1     -28.544   6.319 -22.747  0.00  0.00    +0.011 A 
ATOM     27  C21 UNL     1     -28.348   4.948 -22.771  0.00  0.00    +0.001 A 
ATOM     28  C22 UNL     1     -27.315   4.404 -22.025  0.00  0.00    +0.000 A 
ATOM     29 CL1  UNL     1     -28.091   8.829 -22.133  0.00  0.00    -0.082 Cl
ENDBRANCH   7  19
BRANCH  17  30
ATOM     30  C31 UNL     1     -29.161  14.436 -13.136  0.00  0.00    +0.193 C 
ATOM     31  C32 UNL     1     -28.773  13.802 -12.030  0.00  0.00    +0.037 C 
ATOM     32  F1  UNL     1     -30.469  14.536 -13.445  0.00  0.00    -0.199 F 
ENDBRANCH  17  30
BRANCH   1  33
ATOM     33  O1  UNL     1     -22.725  13.690 -18.938  0.00  0.00    -0.445 OA
BRANCH  33  34
ATOM     34  C6  UNL     1     -21.687  13.181 -18.114  0.00  0.00    +0.224 C 
BRANCH  34  40
ATOM     35  C1  UNL     1     -19.483  14.916 -18.126  0.00  0.00    +0.090 C 
ATOM     36  N1  UNL     1     -19.220  13.554 -18.549  0.00  0.00    -0.270 NA
ATOM     37  C2  UNL     1     -18.680  12.809 -17.419  0.00  0.00    +0.072 C 
ATOM     38  C3  UNL     1     -18.966  11.359 -17.753  0.00  0.00    +0.019 C 
ATOM     39  C4  UNL     1     -20.066  11.393 -18.797  0.00  0.00    +0.021 C 
ATOM     40  C5  UNL     1     -20.447  12.855 -18.940  0.00  0.00    +0.102 C 
ENDBRANCH  34  40
ENDBRANCH  33  34
ENDBRANCH   1  33
BRANCH  15  41
ATOM     41  C28 UNL     1     -25.461  15.018 -15.635  0.00  0.00    +0.127 C 
BRANCH  41  42
ATOM     42  C29 UNL     1     -24.600  15.898 -16.424  0.00  0.00    +0.075 C 
ATOM     43  N7  UNL     1     -23.894  16.602 -17.019  0.00  0.00    -0.196 NA
ENDBRANCH  41  42
ENDBRANCH  15  41
TORSDOF 7
ENDMDL
