MODEL 1
REMARK VINA RESULT:    -8.082      0.000      0.000
REMARK INTER + INTRA:         -11.847
REMARK INTER:                 -10.916
REMARK INTRA:                  -0.931
REMARK UNBOUND:                -0.931
REMARK  Name = /tmp/tmpm7ohxs_t/5V90_candidate_0082.pdb
REMARK  6 active torsions:
REMARK  status: ('A' for Active; 'I' for Inactive)
REMARK    1  A    between atoms: C7_10  and  O1_32
REMARK    2  A    between atoms: C10_14  and  C14_19
REMARK    3  A    between atoms: C15_20  and  C20_27
REMARK    4  A    between atoms: O1_32  and  C21_33
REMARK    5  A    between atoms: C21_33  and  C22_34
REMARK    6  A    between atoms: C27_40  and  C28_42
REMARK                            x       y       z     vdW  Elec       q    Type
REMARK                         _______ _______ _______ _____ _____    ______ ____
ROOT
ATOM      1  C1  UNL     1     -23.051  21.614 -15.494  0.00  0.00    +0.023 C 
ATOM      2  C2  UNL     1     -22.583  20.728 -16.628  0.00  0.00    +0.094 C 
ATOM      3  C3  UNL     1     -22.084  21.627 -17.757  0.00  0.00    +0.113 C 
ATOM      4  N1  UNL     1     -20.957  21.120 -18.518  0.00  0.00    -0.273 N 
ATOM      5  C4  UNL     1     -19.903  20.418 -17.813  0.00  0.00    +0.115 C 
ATOM      6  C5  UNL     1     -20.201  20.145 -16.343  0.00  0.00    +0.114 C 
ATOM      7  N2  UNL     1     -21.599  19.778 -16.104  0.00  0.00    -0.291 N 
ATOM      8  C6  UNL     1     -21.874  18.434 -16.424  0.00  0.00    +0.138 A 
ATOM      9  N3  UNL     1     -20.878  17.708 -16.963  0.00  0.00    -0.179 NA
ATOM     10  C7  UNL     1     -21.135  16.433 -17.281  0.00  0.00    +0.321 A 
ATOM     11  N4  UNL     1     -22.290  15.801 -17.072  0.00  0.00    -0.192 NA
ATOM     12  C8  UNL     1     -23.277  16.500 -16.500  0.00  0.00    +0.116 A 
ATOM     13  C9  UNL     1     -24.505  15.888 -16.232  0.00  0.00    +0.160 A 
ATOM     14  C10 UNL     1     -25.587  16.549 -15.626  0.00  0.00    +0.057 A 
ATOM     15  C11 UNL     1     -25.406  17.886 -15.276  0.00  0.00    +0.061 A 
ATOM     16  C12 UNL     1     -24.191  18.514 -15.532  0.00  0.00    +0.016 A 
ATOM     17  C13 UNL     1     -23.122  17.845 -16.151  0.00  0.00    +0.053 A 
ATOM     18 CL1  UNL     1     -26.651  18.848 -14.574  0.00  0.00    -0.082 Cl
ATOM     19  F4  UNL     1     -24.671  14.599 -16.582  0.00  0.00    -0.203 F 
ATOM     20  C27 UNL     1     -20.732  21.434 -19.840  0.00  0.00    +0.249 C 
ATOM     21  O2  UNL     1     -19.720  21.103 -20.447  0.00  0.00    -0.270 OA
ENDROOT
BRANCH  14  22
ATOM     22  C14 UNL     1     -26.830  15.820 -15.360  0.00  0.00    +0.089 A 
ATOM     23  C15 UNL     1     -27.794  15.509 -16.325  0.00  0.00    +0.085 A 
ATOM     24  C16 UNL     1     -28.897  14.747 -15.906  0.00  0.00    -0.014 A 
ATOM     25  C17 UNL     1     -29.017  14.365 -14.571  0.00  0.00    +0.033 A 
ATOM     26  C18 UNL     1     -28.031  14.737 -13.671  0.00  0.00    +0.169 A 
ATOM     27  N5  UNL     1     -26.948  15.451 -14.055  0.00  0.00    -0.227 NA
ATOM     28  N6  UNL     1     -28.182  14.344 -12.324  0.00  0.00    -0.107 NA
ATOM     29  C19 UNL     1     -29.967  14.301 -16.847  0.00  0.00    +0.031 C 
BRANCH  23  30
ATOM     30  C20 UNL     1     -27.638  15.929 -17.762  0.00  0.00    +0.420 C 
ATOM     31  F1  UNL     1     -26.927  15.028 -18.491  0.00  0.00    -0.166 F 
ATOM     32  F2  UNL     1     -27.008  17.126 -17.930  0.00  0.00    -0.166 F 
ATOM     33  F3  UNL     1     -28.830  16.072 -18.409  0.00  0.00    -0.166 F 
ENDBRANCH  23  30
ENDBRANCH  14  22
BRANCH  20  34
ATOM     34  C28 UNL     1     -21.826  22.209 -20.474  0.00  0.00    +0.058 C 
ATOM     35  C29 UNL     1     -22.564  21.604 -21.406  0.00  0.00    +0.005 C 
ENDBRANCH  20  34
BRANCH  10  36
ATOM     36  O1  UNL     1     -20.147  15.656 -17.840  0.00  0.00    -0.445 OA
BRANCH  36  37
ATOM     37  C21 UNL     1     -20.744  14.614 -18.604  0.00  0.00    +0.224 C 
BRANCH  37  38
ATOM     38  C22 UNL     1     -20.567  13.284 -17.889  0.00  0.00    +0.102 C 
ATOM     39  C23 UNL     1     -19.100  13.059 -17.595  0.00  0.00    +0.021 C 
ATOM     40  C24 UNL     1     -18.938  11.554 -17.582  0.00  0.00    +0.019 C 
ATOM     41  C25 UNL     1     -20.244  11.002 -18.117  0.00  0.00    +0.072 C 
ATOM     42  N7  UNL     1     -20.916  12.142 -18.734  0.00  0.00    -0.270 NA
ATOM     43  C26 UNL     1     -22.347  11.915 -18.617  0.00  0.00    +0.090 C 
ENDBRANCH  37  38
ENDBRANCH  36  37
ENDBRANCH  10  36
TORSDOF 6
ENDMDL
