MODEL 1
REMARK VINA RESULT:    -7.842      0.000      0.000
REMARK INTER + INTRA:         -11.469
REMARK INTER:                  -9.676
REMARK INTRA:                  -1.793
REMARK UNBOUND:                -1.793
REMARK  Name = /tmp/tmpscqk120c/5V90_candidate_0005.pdb
REMARK  4 active torsions:
REMARK  status: ('A' for Active; 'I' for Inactive)
REMARK    1  A    between atoms: C3_3  and  N2_11
REMARK    2  A    between atoms: C4_4  and  C7_8
REMARK    3  A    between atoms: C11_14  and  C27_37
REMARK    4  A    between atoms: C23_31  and  C24_33
REMARK                            x       y       z     vdW  Elec       q    Type
REMARK                         _______ _______ _______ _____ _____    ______ ____
ROOT
ATOM      1  N2  UNL     1     -24.493  21.852 -16.376  0.00  0.00    -0.257 N 
ATOM      2  C10 UNL     1     -24.863  20.558 -15.937  0.00  0.00    +0.151 A 
ATOM      3  N3  UNL     1     -26.008  20.401 -15.218  0.00  0.00    -0.227 NA
ATOM      4  C11 UNL     1     -26.384  19.160 -14.814  0.00  0.00    +0.099 A 
ATOM      5  C12 UNL     1     -25.633  18.037 -15.124  0.00  0.00    +0.076 A 
ATOM      6  C13 UNL     1     -24.459  18.220 -15.839  0.00  0.00    +0.017 A 
ATOM      7  C14 UNL     1     -24.031  19.487 -16.240  0.00  0.00    +0.050 A 
ATOM      8  C15 UNL     1     -22.764  19.680 -16.969  0.00  0.00    +0.070 A 
ATOM      9  C16 UNL     1     -22.424  20.921 -17.388  0.00  0.00    +0.125 A 
ATOM     10  C17 UNL     1     -23.325  22.104 -17.084  0.00  0.00    +0.281 A 
ATOM     11  O1  UNL     1     -23.022  23.232 -17.480  0.00  0.00    -0.265 OA
ATOM     12  N4  UNL     1     -21.212  21.122 -18.058  0.00  0.00    -0.251 N 
ATOM     13  C18 UNL     1     -20.355  20.088 -18.429  0.00  0.00    +0.249 C 
ATOM     14  O2  UNL     1     -19.243  20.295 -18.917  0.00  0.00    -0.273 OA
ATOM     15  C19 UNL     1     -20.918  18.680 -18.281  0.00  0.00    +0.170 C 
ATOM     16  N5  UNL     1     -21.946  18.570 -17.216  0.00  0.00    -0.297 N 
ATOM     17  C20 UNL     1     -21.640  17.580 -16.179  0.00  0.00    +0.113 C 
ATOM     18  C21 UNL     1     -21.262  16.233 -16.787  0.00  0.00    +0.115 C 
ATOM     19  N6  UNL     1     -20.200  16.345 -17.774  0.00  0.00    -0.272 N 
ATOM     20  C22 UNL     1     -19.777  17.675 -18.177  0.00  0.00    +0.123 C 
ATOM     21  C23 UNL     1     -19.542  15.264 -18.315  0.00  0.00    +0.249 C 
ATOM     22  O3  UNL     1     -18.640  15.371 -19.138  0.00  0.00    -0.270 OA
ATOM     23  C26 UNL     1     -20.733  22.453 -18.342  0.00  0.00    +0.120 C 
ATOM     24 CL1  UNL     1     -26.078  16.434 -14.690  0.00  0.00    -0.081 Cl
ENDROOT
BRANCH   4  25
ATOM     25  C27 UNL     1     -27.623  19.132 -14.038  0.00  0.00    +0.085 A 
ATOM     26  C28 UNL     1     -28.844  18.738 -14.598  0.00  0.00    +0.199 A 
ATOM     27  C29 UNL     1     -30.024  18.729 -13.858  0.00  0.00    +0.042 A 
ATOM     28  C30 UNL     1     -30.003  19.123 -12.525  0.00  0.00    +0.006 A 
ATOM     29  C31 UNL     1     -28.806  19.521 -11.938  0.00  0.00    +0.030 A 
ATOM     30  C32 UNL     1     -27.635  19.524 -12.694  0.00  0.00    +0.145 A 
ATOM     31  F1  UNL     1     -26.494  19.917 -12.104  0.00  0.00    -0.204 F 
ATOM     32  O4  UNL     1     -28.913  18.327 -15.901  0.00  0.00    -0.286 OA
ENDBRANCH   4  25
BRANCH   1  35
ATOM     33  C1  UNL     1     -26.638  22.648 -18.240  0.00  0.00    +0.033 C 
ATOM     34  C2  UNL     1     -26.414  23.302 -16.918  0.00  0.00    -0.003 A 
ATOM     35  C3  UNL     1     -25.373  22.929 -16.054  0.00  0.00    +0.078 A 
ATOM     36  C4  UNL     1     -25.211  23.671 -14.869  0.00  0.00    +0.074 A 
ATOM     37  N1  UNL     1     -26.032  24.697 -14.517  0.00  0.00    -0.247 NA
ATOM     38  C5  UNL     1     -27.028  25.011 -15.374  0.00  0.00    +0.098 A 
ATOM     39  C6  UNL     1     -27.254  24.357 -16.571  0.00  0.00    +0.018 A 
BRANCH  36  40
ATOM     40  C7  UNL     1     -24.139  23.306 -13.886  0.00  0.00    +0.042 C 
ATOM     41  C8  UNL     1     -24.745  22.908 -12.562  0.00  0.00    +0.006 C 
ATOM     42  C9  UNL     1     -23.160  24.439 -13.691  0.00  0.00    +0.006 C 
ENDBRANCH  36  40
ENDBRANCH   1  35
BRANCH  21  43
ATOM     43  C24 UNL     1     -20.021  13.950 -17.820  0.00  0.00    +0.058 C 
ATOM     44  C25 UNL     1     -19.145  12.945 -17.767  0.00  0.00    +0.005 C 
ENDBRANCH  21  43
TORSDOF 4
ENDMDL
