MODEL 1
REMARK VINA RESULT:    -9.342      0.000      0.000
REMARK INTER + INTRA:         -10.772
REMARK INTER:                 -10.981
REMARK INTRA:                   0.209
REMARK UNBOUND:                 0.209
REMARK  Name = /tmp/tmp53748ezw/5V90_candidate_0037.pdb
REMARK  3 active torsions:
REMARK  status: ('A' for Active; 'I' for Inactive)
REMARK    1  A    between atoms: C3_4  and  C4_6
REMARK    2  A    between atoms: N4_14  and  C10_15
REMARK    3  A    between atoms: C17_24  and  N7_27
REMARK                            x       y       z     vdW  Elec       q    Type
REMARK                         _______ _______ _______ _____ _____    ______ ____
ROOT
ATOM      1  C4  UNL     1     -23.309  10.710 -18.558  0.00  0.00    +0.115 A 
ATOM      2  C5  UNL     1     -24.295  11.684 -18.462  0.00  0.00    +0.026 A 
ATOM      3  C6  UNL     1     -23.697  12.948 -18.304  0.00  0.00    +0.055 A 
ATOM      4  C7  UNL     1     -24.121  14.259 -18.158  0.00  0.00    +0.105 A 
ATOM      5  N2  UNL     1     -23.198  15.239 -18.030  0.00  0.00    -0.210 NA
ATOM      6  C8  UNL     1     -21.879  14.935 -18.019  0.00  0.00    +0.244 A 
ATOM      7  N3  UNL     1     -21.391  13.686 -18.182  0.00  0.00    -0.195 NA
ATOM      8  C9  UNL     1     -22.335  12.744 -18.313  0.00  0.00    +0.148 A 
ATOM      9  N4  UNL     1     -22.108  11.397 -18.477  0.00  0.00    -0.311 N 
ATOM     10  N5  UNL     1     -20.916  15.958 -17.908  0.00  0.00    -0.159 NA
ATOM     11  C15 UNL     1     -21.126  17.237 -17.342  0.00  0.00    +0.155 A 
ATOM     12  N6  UNL     1     -22.125  17.496 -16.468  0.00  0.00    -0.226 NA
ATOM     13  C16 UNL     1     -22.211  18.751 -15.969  0.00  0.00    +0.115 A 
ATOM     14  C17 UNL     1     -21.366  19.815 -16.277  0.00  0.00    +0.067 A 
ATOM     15  C18 UNL     1     -20.328  19.497 -17.149  0.00  0.00    +0.019 A 
ATOM     16  C19 UNL     1     -20.200  18.219 -17.685  0.00  0.00    +0.037 A 
ENDROOT
BRANCH  14  17
ATOM     17  N7  UNL     1     -21.491  21.079 -15.705  0.00  0.00    -0.303 N 
ATOM     18  C20 UNL     1     -20.480  22.060 -16.093  0.00  0.00    +0.110 C 
ATOM     19  C21 UNL     1     -20.855  23.451 -15.595  0.00  0.00    +0.110 C 
ATOM     20  N8  UNL     1     -22.141  23.948 -16.083  0.00  0.00    -0.214 NA
ATOM     21  C22 UNL     1     -23.067  22.857 -16.384  0.00  0.00    +0.110 C 
ATOM     22  C23 UNL     1     -22.857  21.584 -15.569  0.00  0.00    +0.110 C 
ENDBRANCH  14  17
BRANCH   1  26
ATOM     23  C1  UNL     1     -24.268   7.407 -20.057  0.00  0.00    +0.115 C 
ATOM     24  N1  UNL     1     -24.124   8.826 -19.880  0.00  0.00    -0.271 N 
ATOM     25  C2  UNL     1     -24.848   9.653 -20.808  0.00  0.00    +0.115 C 
ATOM     26  C3  UNL     1     -23.455   9.275 -18.752  0.00  0.00    +0.265 C 
ATOM     27  O1  UNL     1     -23.005   8.459 -17.947  0.00  0.00    -0.268 OA
ENDBRANCH   1  26
BRANCH   9  28
ATOM     28  C10 UNL     1     -20.763  10.883 -18.507  0.00  0.00    +0.087 C 
ATOM     29  C11 UNL     1     -19.778  11.709 -19.302  0.00  0.00    +0.023 C 
ATOM     30  C12 UNL     1     -18.419  11.386 -18.706  0.00  0.00    +0.002 C 
ATOM     31  C13 UNL     1     -18.657  10.580 -17.439  0.00  0.00    +0.002 C 
ATOM     32  C14 UNL     1     -20.144  10.658 -17.149  0.00  0.00    +0.023 C 
ENDBRANCH   9  28
TORSDOF 3
ENDMDL
