MODEL 1
REMARK VINA RESULT:    -7.775      0.000      0.000
REMARK INTER + INTRA:         -13.506
REMARK INTER:                 -10.957
REMARK INTRA:                  -2.549
REMARK UNBOUND:                -2.549
REMARK  Name = /tmp/tmppx5gyswu/5V90_candidate_0021.pdb
REMARK  7 active torsions:
REMARK  status: ('A' for Active; 'I' for Inactive)
REMARK    1  A    between atoms: C2_2  and  C3_3
REMARK    2  A    between atoms: C3_3  and  S1_4
REMARK    3  A    between atoms: S1_4  and  N1_7
REMARK    4  A    between atoms: N1_7  and  C4_8
REMARK    5  A    between atoms: C6_10  and  C10_15
REMARK    6  A    between atoms: C10_15  and  C11_17
REMARK    7  A    between atoms: C16_23  and  C18_26
REMARK                            x       y       z     vdW  Elec       q    Type
REMARK                         _______ _______ _______ _____ _____    ______ ____
ROOT
ATOM      1  C10 UNL     1     -22.503  11.049 -18.262  0.00  0.00    +0.202 C 
ATOM      2  O3  UNL     1     -22.465  10.109 -17.471  0.00  0.00    -0.286 OA
ENDROOT
BRANCH   1   3
ATOM      3  C11 UNL     1     -21.323  11.800 -18.670  0.00  0.00    +0.061 A 
ATOM      4  C12 UNL     1     -20.248  11.312 -19.393  0.00  0.00    +0.104 A 
ATOM      5  N2  UNL     1     -19.340  12.320 -19.559  0.00  0.00    -0.225 NA
ATOM      6  C13 UNL     1     -19.784  13.457 -18.949  0.00  0.00    +0.162 A 
ATOM      7  C14 UNL     1     -21.024  13.172 -18.387  0.00  0.00    +0.040 A 
ATOM      8  C15 UNL     1     -21.665  14.219 -17.704  0.00  0.00    +0.005 A 
ATOM      9  C16 UNL     1     -21.047  15.473 -17.618  0.00  0.00    +0.019 A 
ATOM     10  C17 UNL     1     -19.803  15.590 -18.236  0.00  0.00    +0.101 A 
ATOM     11  N3  UNL     1     -19.124  14.632 -18.910  0.00  0.00    -0.225 NA
BRANCH   9  12
ATOM     12  C18 UNL     1     -21.672  16.598 -16.915  0.00  0.00    +0.002 A 
ATOM     13  C19 UNL     1     -23.059  16.648 -16.712  0.00  0.00    +0.001 A 
ATOM     14  C20 UNL     1     -23.661  17.713 -16.043  0.00  0.00    +0.011 A 
ATOM     15  C21 UNL     1     -22.871  18.751 -15.566  0.00  0.00    +0.058 A 
ATOM     16  C22 UNL     1     -21.494  18.733 -15.748  0.00  0.00    +0.011 A 
ATOM     17  C23 UNL     1     -20.905  17.662 -16.417  0.00  0.00    +0.001 A 
ATOM     18 CL1  UNL     1     -23.602  20.067 -14.745  0.00  0.00    -0.082 Cl
ENDBRANCH   9  12
ENDBRANCH   1   3
BRANCH   1  21
ATOM     19  C4  UNL     1     -25.927  12.538 -18.669  0.00  0.00    +0.118 A 
ATOM     20  C5  UNL     1     -24.690  12.204 -18.114  0.00  0.00    +0.162 A 
ATOM     21  C6  UNL     1     -23.798  11.416 -18.835  0.00  0.00    +0.095 A 
ATOM     22  C7  UNL     1     -24.149  10.948 -20.098  0.00  0.00    +0.145 A 
ATOM     23  C8  UNL     1     -25.386  11.272 -20.652  0.00  0.00    +0.031 A 
ATOM     24  C9  UNL     1     -26.280  12.065 -19.934  0.00  0.00    +0.023 A 
ATOM     25  F1  UNL     1     -23.294  10.205 -20.815  0.00  0.00    -0.204 F 
ATOM     26  F2  UNL     1     -24.366  12.648 -16.890  0.00  0.00    -0.203 F 
BRANCH  19  27
ATOM     27  N1  UNL     1     -26.862  13.321 -17.924  0.00  0.00    -0.098 NA
BRANCH  27  28
ATOM     28  S1  UNL     1     -26.929  14.979 -18.357  0.00  0.00    +0.073 S 
ATOM     29  O1  UNL     1     -25.628  15.415 -18.827  0.00  0.00    -0.153 OA
ATOM     30  O2  UNL     1     -28.137  15.200 -19.126  0.00  0.00    -0.153 OA
BRANCH  28  31
ATOM     31  C3  UNL     1     -27.193  15.667 -16.740  0.00  0.00    +0.174 C 
BRANCH  31  33
ATOM     32  C1  UNL     1     -25.865  15.040 -14.753  0.00  0.00    +0.002 C 
ATOM     33  C2  UNL     1     -26.974  14.608 -15.679  0.00  0.00    +0.027 C 
ENDBRANCH  31  33
ENDBRANCH  28  31
ENDBRANCH  27  28
ENDBRANCH  19  27
ENDBRANCH   1  21
TORSDOF 7
ENDMDL
