MODEL 1
REMARK VINA RESULT:    -5.106      0.000      0.000
REMARK INTER + INTRA:          -5.106
REMARK INTER:                  -5.106
REMARK INTRA:                   0.000
REMARK UNBOUND:                 0.000
REMARK  Name = /tmp/tmpze7d5i0u/5V90_candidate_0007.pdb
REMARK  0 active torsions:
REMARK  status: ('A' for Active; 'I' for Inactive)
REMARK                            x       y       z     vdW  Elec       q    Type
REMARK                         _______ _______ _______ _____ _____    ______ ____
ROOT
ATOM      1  C1  UNL     1      -1.950  12.888 -26.561  0.00  0.00    +0.138 A 
ATOM      2  C2  UNL     1      -2.330  11.794 -25.903  0.00  0.00    +0.217 A 
ATOM      3  C3  UNL     1      -2.494  10.512 -26.619  0.00  0.00    +0.312 A 
ATOM      4  O1  UNL     1      -2.843   9.492 -26.034  0.00  0.00    -0.263 OA
ATOM      5  N1  UNL     1      -2.224  10.574 -27.971  0.00  0.00    -0.150 NA
ATOM      6  C4  UNL     1      -1.827  11.703 -28.672  0.00  0.00    +0.372 A 
ATOM      7  O2  UNL     1      -1.601  11.689 -29.881  0.00  0.00    -0.243 OA
ATOM      8  N2  UNL     1      -1.704  12.851 -27.905  0.00  0.00    -0.187 NA
ATOM      9  F1  UNL     1      -2.580  11.804 -24.580  0.00  0.00    -0.197 F 
ENDROOT
TORSDOF 0
ENDMDL
