MODEL 1
REMARK VINA RESULT:    -7.726      0.000      0.000
REMARK INTER + INTRA:         -13.225
REMARK INTER:                 -11.791
REMARK INTRA:                  -1.434
REMARK UNBOUND:                -1.434
REMARK  Name = /tmp/tmpqzbzppgg/5V90_candidate_0074.pdb
REMARK  9 active torsions:
REMARK  status: ('A' for Active; 'I' for Inactive)
REMARK    1  A    between atoms: C7_7  and  O14_67
REMARK    2  A    between atoms: C18_19  and  O13_62
REMARK    3  A    between atoms: C25_27  and  C35_44
REMARK    4  A    between atoms: C35_44  and  C37_46
REMARK    5  A    between atoms: C37_46  and  C38_47
REMARK    6  A    between atoms: C41_50  and  O10_55
REMARK    7  A    between atoms: C42_51  and  O9_53
REMARK    8  A    between atoms: O10_55  and  C45_56
REMARK    9  A    between atoms: C45_56  and  C46_57
REMARK                            x       y       z     vdW  Elec       q    Type
REMARK                         _______ _______ _______ _____ _____    ______ ____
ROOT
ATOM      1  C1  UNL     1      -9.377  -1.544 -13.088  0.00  0.00    +0.010 C 
ATOM      2  C2  UNL     1      -8.719  -2.653 -12.305  0.00  0.00    +0.084 C 
ATOM      3  C3  UNL     1      -7.720  -3.404 -13.143  0.00  0.00    -0.023 C 
ATOM      4  C4  UNL     1      -7.968  -4.887 -13.317  0.00  0.00    -0.001 C 
ATOM      5  C5  UNL     1      -8.976  -5.493 -12.367  0.00  0.00    +0.143 C 
ATOM      6  C6  UNL     1      -8.552  -6.901 -12.018  0.00  0.00    +0.068 C 
ATOM      7  C7  UNL     1      -9.721  -7.867 -11.962  0.00  0.00    +0.136 C 
ATOM      8  C8  UNL     1     -10.602  -7.601 -10.774  0.00  0.00    -0.017 C 
ATOM      9  C9  UNL     1     -11.864  -7.160 -10.876  0.00  0.00    -0.006 C 
ATOM     10  C10 UNL     1     -12.706  -6.836  -9.765  0.00  0.00    -0.001 C 
ATOM     11  C11 UNL     1     -13.983  -6.480  -9.907  0.00  0.00    -0.000 C 
ATOM     12  C12 UNL     1     -14.813  -6.091  -8.804  0.00  0.00    -0.005 C 
ATOM     13  C13 UNL     1     -14.907  -6.778  -7.664  0.00  0.00    -0.026 C 
ATOM     14  C14 UNL     1     -15.703  -6.307  -6.502  0.00  0.00    +0.022 C 
ATOM     15  C15 UNL     1     -14.745  -5.914  -5.398  0.00  0.00    +0.012 C 
ATOM     16  C16 UNL     1     -14.810  -4.454  -5.015  0.00  0.00    +0.061 C 
ATOM     17  C17 UNL     1     -15.893  -4.229  -3.989  0.00  0.00    +0.180 C 
ATOM     18  O1  UNL     1     -17.083  -4.376  -4.271  0.00  0.00    -0.293 OA
ATOM     19  C18 UNL     1     -15.404  -3.908  -2.571  0.00  0.00    +0.206 C 
ATOM     20  C19 UNL     1     -14.587  -2.627  -2.502  0.00  0.00    +0.204 C 
ATOM     21  C20 UNL     1     -13.109  -2.876  -2.439  0.00  0.00    -0.015 C 
ATOM     22  C21 UNL     1     -12.289  -2.699  -3.481  0.00  0.00    -0.025 C 
ATOM     23  C22 UNL     1     -10.805  -2.827  -3.480  0.00  0.00    +0.079 C 
ATOM     24  C23 UNL     1     -10.227  -1.466  -3.791  0.00  0.00    +0.158 C 
ATOM     25  O2  UNL     1      -9.723  -0.771  -2.907  0.00  0.00    -0.296 OA
ATOM     26  C24 UNL     1     -10.367  -0.970  -5.206  0.00  0.00    +0.108 C 
ATOM     27  C25 UNL     1      -9.134  -0.183  -5.574  0.00  0.00    +0.176 C 
ATOM     28  O3  UNL     1      -8.631  -0.674  -6.813  0.00  0.00    -0.451 OA
ATOM     29  C26 UNL     1      -7.411  -1.263  -6.676  0.00  0.00    +0.335 C 
ATOM     30  O4  UNL     1      -6.809  -1.371  -5.614  0.00  0.00    -0.248 OA
ATOM     31  C27 UNL     1      -6.848  -1.724  -8.024  0.00  0.00    +0.175 C 
ATOM     32  C28 UNL     1      -5.617  -0.894  -8.344  0.00  0.00    +0.031 C 
ATOM     33  C29 UNL     1      -5.973   0.465  -8.910  0.00  0.00    +0.004 C 
ATOM     34  C30 UNL     1      -6.866   0.308 -10.123  0.00  0.00    +0.022 C 
ATOM     35  C31 UNL     1      -8.112  -0.479  -9.775  0.00  0.00    +0.094 C 
ATOM     36  N1  UNL     1      -7.783  -1.743  -9.143  0.00  0.00    -0.265 N 
ATOM     37  C32 UNL     1      -8.710  -2.780  -9.123  0.00  0.00    +0.289 C 
ATOM     38  O5  UNL     1      -8.669  -3.715  -8.333  0.00  0.00    -0.267 OA
ATOM     39  C33 UNL     1      -9.847  -2.688 -10.123  0.00  0.00    +0.280 C 
ATOM     40  O6  UNL     1     -10.784  -1.939  -9.860  0.00  0.00    -0.281 OA
ATOM     41  C34 UNL     1      -9.646  -3.472 -11.419  0.00  0.00    +0.283 C 
ATOM     42  O7  UNL     1      -9.058  -4.740 -11.163  0.00  0.00    -0.324 OA
ATOM     43  O8  UNL     1     -10.919  -3.602 -12.040  0.00  0.00    -0.186 OA
ATOM     44  C47 UNL     1     -10.357  -3.845  -4.499  0.00  0.00    +0.012 C 
ATOM     45  C48 UNL     1     -12.596  -3.258  -1.091  0.00  0.00    +0.029 C 
ATOM     46  O12 UNL     1     -14.920  -1.693  -3.514  0.00  0.00    -0.216 OA
ATOM     47  C50 UNL     1     -14.969  -3.512  -6.182  0.00  0.00    +0.008 C 
ATOM     48  C51 UNL     1     -16.582  -7.436  -6.018  0.00  0.00    +0.005 C 
ATOM     49  C52 UNL     1      -9.954  -7.834  -9.449  0.00  0.00    +0.029 C 
ENDROOT
BRANCH  27  50
ATOM     50  C35 UNL     1      -9.452   1.301  -5.680  0.00  0.00    +0.041 C 
ATOM     51  C36 UNL     1     -10.902   1.587  -5.360  0.00  0.00    +0.004 C 
BRANCH  50  52
ATOM     52  C37 UNL     1      -9.165   1.818  -7.074  0.00  0.00    +0.004 C 
BRANCH  52  53
ATOM     53  C38 UNL     1     -10.416   2.273  -7.799  0.00  0.00    +0.003 C 
ATOM     54  C39 UNL     1     -10.300   2.108  -9.299  0.00  0.00    +0.003 C 
ATOM     55  C40 UNL     1      -9.599   3.238 -10.020  0.00  0.00    +0.032 C 
ATOM     56  C41 UNL     1      -9.063   4.306  -9.092  0.00  0.00    +0.142 C 
ATOM     57  C42 UNL     1     -10.195   4.796  -8.191  0.00  0.00    +0.142 C 
ATOM     58  C43 UNL     1     -10.789   3.672  -7.357  0.00  0.00    +0.032 C 
BRANCH  57  59
ATOM     59  O9  UNL     1      -9.741   5.815  -7.305  0.00  0.00    -0.351 OA
ATOM     60  C44 UNL     1      -8.803   5.227  -6.416  0.00  0.00    +0.174 C 
ENDBRANCH  57  59
BRANCH  56  61
ATOM     61  O10 UNL     1      -8.544   5.352  -9.908  0.00  0.00    -0.351 OA
BRANCH  61  62
ATOM     62  C45 UNL     1      -8.738   4.974 -11.267  0.00  0.00    +0.178 C 
BRANCH  62  63
ATOM     63  C46 UNL     1      -7.682   5.640 -12.118  0.00  0.00    +0.214 C 
ATOM     64  O11 UNL     1      -6.791   4.641 -12.591  0.00  0.00    -0.218 OA
ENDBRANCH  62  63
ENDBRANCH  61  62
ENDBRANCH  56  61
ENDBRANCH  52  53
ENDBRANCH  50  52
ENDBRANCH  27  50
BRANCH  19  65
ATOM     65  O13 UNL     1     -16.340  -3.910  -1.512  0.00  0.00    -0.343 OA
ATOM     66  C49 UNL     1     -15.911  -4.816  -0.504  0.00  0.00    +0.175 C 
ENDBRANCH  19  65
BRANCH   7  67
ATOM     67  O14 UNL     1     -10.423  -7.810 -13.194  0.00  0.00    -0.349 OA
ATOM     68  C53 UNL     1      -9.821  -8.742 -14.083  0.00  0.00    +0.174 C 
ENDBRANCH   7  67
TORSDOF 9
ENDMDL
