MODEL 1
REMARK VINA RESULT:    -8.456      0.000      0.000
REMARK INTER + INTRA:         -12.215
REMARK INTER:                 -10.433
REMARK INTRA:                  -1.782
REMARK UNBOUND:                -1.782
REMARK  Name = /tmp/tmp8lc1k1ec/5V90_candidate_0068.pdb
REMARK  4 active torsions:
REMARK  status: ('A' for Active; 'I' for Inactive)
REMARK    1  A    between atoms: C7_9  and  C9_12
REMARK    2  A    between atoms: N3_14  and  C20_27
REMARK    3  A    between atoms: C11_16  and  C12_17
REMARK    4  A    between atoms: C26_34  and  C27_36
REMARK                            x       y       z     vdW  Elec       q    Type
REMARK                         _______ _______ _______ _____ _____    ______ ____
ROOT
ATOM      1  C9  UNL     1     -25.831  12.566 -18.440  0.00  0.00    +0.033 A 
ATOM      2  C10 UNL     1     -26.912  13.271 -17.947  0.00  0.00    +0.057 A 
ATOM      3  N3  UNL     1     -26.377  14.238 -17.149  0.00  0.00    -0.257 N 
ATOM      4  N4  UNL     1     -25.039  14.216 -17.085  0.00  0.00    -0.170 NA
ATOM      5  C11 UNL     1     -24.673  13.195 -17.879  0.00  0.00    +0.102 A 
ATOM      6  C29 UNL     1     -28.365  13.126 -18.158  0.00  0.00    +0.052 C 
ENDROOT
BRANCH   1  15
ATOM      7  C1  UNL     1     -26.176   7.625 -19.444  0.00  0.00    +0.032 C 
ATOM      8  C2  UNL     1     -26.143   9.062 -19.858  0.00  0.00    -0.010 A 
ATOM      9  C3  UNL     1     -26.261   9.331 -21.228  0.00  0.00    +0.018 A 
ATOM     10  C4  UNL     1     -26.223  10.669 -21.617  0.00  0.00    +0.104 A 
ATOM     11  C5  UNL     1     -26.080  11.721 -20.722  0.00  0.00    +0.041 A 
ATOM     12  C6  UNL     1     -26.093  12.873 -21.542  0.00  0.00    +0.124 A 
ATOM     13  N1  UNL     1     -26.214  12.586 -22.839  0.00  0.00    -0.146 NA
ATOM     14  N2  UNL     1     -26.305  11.248 -22.852  0.00  0.00    -0.148 NA
ATOM     15  C7  UNL     1     -25.965  11.442 -19.343  0.00  0.00    +0.016 A 
ATOM     16  C8  UNL     1     -26.000  10.098 -18.922  0.00  0.00    +0.054 A 
ATOM     17 CL1  UNL     1     -25.857   9.699 -17.241  0.00  0.00    -0.083 Cl
ENDBRANCH   1  15
BRANCH   5  18
ATOM     18  C12 UNL     1     -23.261  12.863 -18.054  0.00  0.00    +0.020 A 
ATOM     19  C13 UNL     1     -22.280  13.861 -18.001  0.00  0.00    +0.005 A 
ATOM     20  C14 UNL     1     -20.934  13.508 -18.171  0.00  0.00    +0.038 A 
ATOM     21  C15 UNL     1     -20.598  12.178 -18.400  0.00  0.00    +0.079 A 
ATOM     22  C16 UNL     1     -21.548  11.157 -18.465  0.00  0.00    +0.019 A 
ATOM     23  C17 UNL     1     -22.881  11.537 -18.287  0.00  0.00    +0.003 A 
ATOM     24  N5  UNL     1     -19.238  12.173 -18.513  0.00  0.00    -0.249 N 
ATOM     25  N6  UNL     1     -18.661  13.376 -18.379  0.00  0.00    -0.168 NA
ATOM     26  C18 UNL     1     -19.699  14.193 -18.175  0.00  0.00    +0.122 A 
ATOM     27  C19 UNL     1     -18.409  11.014 -18.750  0.00  0.00    +0.154 C 
ENDBRANCH   5  18
BRANCH   3  28
ATOM     28  C20 UNL     1     -27.196  15.205 -16.395  0.00  0.00    +0.105 C 
ATOM     29  C21 UNL     1     -26.883  16.667 -16.782  0.00  0.00    +0.028 C 
ATOM     30  C22 UNL     1     -26.285  16.854 -15.423  0.00  0.00    +0.040 C 
ATOM     31  C23 UNL     1     -26.607  15.457 -14.991  0.00  0.00    +0.028 C 
ATOM     32  C24 UNL     1     -24.864  17.306 -15.326  0.00  0.00    +0.095 C 
ATOM     33  N7  UNL     1     -25.356  18.298 -14.369  0.00  0.00    -0.276 N 
ATOM     34  C25 UNL     1     -26.768  17.987 -14.580  0.00  0.00    +0.095 C 
ATOM     35  C26 UNL     1     -24.762  19.493 -14.069  0.00  0.00    +0.249 C 
ATOM     36  O1  UNL     1     -23.590  19.760 -14.309  0.00  0.00    -0.270 OA
BRANCH  35  37
ATOM     37  C27 UNL     1     -25.687  20.440 -13.402  0.00  0.00    +0.058 C 
ATOM     38  C28 UNL     1     -25.169  21.528 -12.829  0.00  0.00    +0.005 C 
ENDBRANCH  35  37
ENDBRANCH   3  28
TORSDOF 4
ENDMDL
