MODEL 1
REMARK VINA RESULT:    -7.161      0.000      0.000
REMARK INTER + INTRA:         -12.093
REMARK INTER:                  -9.673
REMARK INTRA:                  -2.420
REMARK UNBOUND:                -2.420
REMARK  Name = /tmp/tmpy7fku7tj/5V90_candidate_0094.pdb
REMARK  6 active torsions:
REMARK  status: ('A' for Active; 'I' for Inactive)
REMARK    1  A    between atoms: C3_3  and  N2_11
REMARK    2  A    between atoms: C4_4  and  C7_8
REMARK    3  A    between atoms: C11_14  and  C26_35
REMARK    4  A    between atoms: C15_18  and  N5_24
REMARK    5  A    between atoms: C16_19  and  C18_22
REMARK    6  A    between atoms: C23_30  and  C24_32
REMARK                            x       y       z     vdW  Elec       q    Type
REMARK                         _______ _______ _______ _____ _____    ______ ____
ROOT
ATOM      1  N2  UNL     1       3.224  13.461 -24.767  0.00  0.00    -0.258 N 
ATOM      2  C10 UNL     1       3.822  14.744 -24.701  0.00  0.00    +0.151 A 
ATOM      3  N3  UNL     1       5.152  14.871 -24.961  0.00  0.00    -0.227 NA
ATOM      4  C11 UNL     1       5.725  16.102 -24.945  0.00  0.00    +0.097 A 
ATOM      5  C12 UNL     1       4.992  17.244 -24.661  0.00  0.00    +0.076 A 
ATOM      6  C13 UNL     1       3.637  17.094 -24.407  0.00  0.00    +0.017 A 
ATOM      7  C14 UNL     1       3.014  15.842 -24.416  0.00  0.00    +0.050 A 
ATOM      8  C15 UNL     1       1.549  15.711 -24.203  0.00  0.00    +0.065 A 
ATOM      9  C16 UNL     1       1.020  14.472 -24.342  0.00  0.00    +0.138 A 
ATOM     10  C17 UNL     1       1.857  13.271 -24.643  0.00  0.00    +0.277 A 
ATOM     11  O1  UNL     1       1.316  12.169 -24.742  0.00  0.00    -0.266 OA
ATOM     12 CL1  UNL     1       5.671  18.818 -24.579  0.00  0.00    -0.081 Cl
ENDROOT
BRANCH   4  13
ATOM     13  C26 UNL     1       7.153  16.101 -25.261  0.00  0.00    +0.067 A 
ATOM     14  C27 UNL     1       8.134  15.849 -24.279  0.00  0.00    +0.122 A 
ATOM     15  C28 UNL     1       9.490  15.850 -24.636  0.00  0.00    +0.186 A 
ATOM     16  C29 UNL     1       9.882  16.093 -25.947  0.00  0.00    +0.198 A 
ATOM     17  C30 UNL     1       8.925  16.333 -26.920  0.00  0.00    +0.197 A 
ATOM     18  C31 UNL     1       7.576  16.342 -26.579  0.00  0.00    +0.173 A 
ATOM     19  F1  UNL     1       6.665  16.599 -27.531  0.00  0.00    -0.202 F 
ATOM     20  F2  UNL     1       9.296  16.570 -28.186  0.00  0.00    -0.199 F 
ATOM     21  F3  UNL     1      11.183  16.095 -26.268  0.00  0.00    -0.199 F 
ATOM     22  F4  UNL     1      10.430  15.633 -23.702  0.00  0.00    -0.200 F 
ATOM     23  N7  UNL     1       7.776  15.615 -22.931  0.00  0.00    -0.126 NA
ENDBRANCH   4  13
BRANCH   8  24
ATOM     24  N5  UNL     1       0.851  16.898 -23.933  0.00  0.00    -0.303 N 
ATOM     25  C19 UNL     1       0.333  17.213 -22.594  0.00  0.00    +0.112 C 
ATOM     26  C20 UNL     1       0.498  18.701 -22.282  0.00  0.00    +0.115 C 
ATOM     27  N6  UNL     1       0.038  19.575 -23.350  0.00  0.00    -0.273 N 
ATOM     28  C21 UNL     1       0.317  19.171 -24.720  0.00  0.00    +0.115 C 
ATOM     29  C22 UNL     1       0.132  17.675 -24.958  0.00  0.00    +0.112 C 
ATOM     30  C23 UNL     1      -0.188  20.921 -23.144  0.00  0.00    +0.249 C 
ATOM     31  O2  UNL     1      -0.328  21.729 -24.056  0.00  0.00    -0.270 OA
BRANCH  30  32
ATOM     32  C24 UNL     1      -0.265  21.307 -21.714  0.00  0.00    +0.058 C 
ATOM     33  C25 UNL     1      -1.461  21.608 -21.205  0.00  0.00    +0.005 C 
ENDBRANCH  30  32
ENDBRANCH   8  24
BRANCH   1  36
ATOM     34  C1  UNL     1       3.794  12.757 -27.575  0.00  0.00    +0.033 C 
ATOM     35  C2  UNL     1       4.326  11.989 -26.412  0.00  0.00    -0.003 A 
ATOM     36  C3  UNL     1       4.078  12.360 -25.079  0.00  0.00    +0.078 A 
ATOM     37  C4  UNL     1       4.703  11.604 -24.069  0.00  0.00    +0.074 A 
ATOM     38  N1  UNL     1       5.499  10.531 -24.330  0.00  0.00    -0.247 NA
ATOM     39  C5  UNL     1       5.699  10.207 -25.625  0.00  0.00    +0.098 A 
ATOM     40  C6  UNL     1       5.142  10.895 -26.685  0.00  0.00    +0.018 A 
BRANCH  37  41
ATOM     41  C7  UNL     1       4.454  11.911 -22.623  0.00  0.00    +0.042 C 
ATOM     42  C8  UNL     1       5.521  12.817 -22.054  0.00  0.00    +0.006 C 
ATOM     43  C9  UNL     1       4.372  10.638 -21.814  0.00  0.00    +0.006 C 
ENDBRANCH  37  41
ENDBRANCH   1  36
BRANCH   9  44
ATOM     44  C18 UNL     1      -0.371  14.223 -24.161  0.00  0.00    +0.107 C 
ATOM     45  N4  UNL     1      -1.517  14.053 -24.061  0.00  0.00    -0.191 NA
ENDBRANCH   9  44
TORSDOF 6
ENDMDL
