MODEL 1
REMARK VINA RESULT:    -8.988      0.000      0.000
REMARK INTER + INTRA:         -13.928
REMARK INTER:                 -12.665
REMARK INTRA:                  -1.262
REMARK UNBOUND:                -1.262
REMARK  Name = /tmp/tmpnkudwg8p/5V90_candidate_0019.pdb
REMARK  7 active torsions:
REMARK  status: ('A' for Active; 'I' for Inactive)
REMARK    1  A    between atoms: N2_5  and  C6_8
REMARK    2  A    between atoms: C8_10  and  N3_19
REMARK    3  A    between atoms: C9_11  and  O1_14
REMARK    4  A    between atoms: O1_14  and  C12_15
REMARK    5  A    between atoms: N6_30  and  C23_36
REMARK    6  A    between atoms: C21_32  and  C22_33
REMARK    7  A    between atoms: C23_36  and  C24_37
REMARK                            x       y       z     vdW  Elec       q    Type
REMARK                         _______ _______ _______ _____ _____    ______ ____
ROOT
ATOM      1  N3  UNL     1     -22.316  17.698 -17.653  0.00  0.00    -0.175 NA
ATOM      2  C13 UNL     1     -21.660  16.467 -17.861  0.00  0.00    +0.241 A 
ATOM      3  N4  UNL     1     -20.313  16.382 -17.871  0.00  0.00    -0.211 NA
ATOM      4  C14 UNL     1     -19.758  15.173 -18.061  0.00  0.00    +0.103 A 
ATOM      5  C15 UNL     1     -20.478  14.028 -18.241  0.00  0.00    +0.038 A 
ATOM      6  C16 UNL     1     -19.828  12.699 -18.457  0.00  0.00    +0.003 A 
ATOM      7  C17 UNL     1     -20.728  11.454 -18.490  0.00  0.00    +0.003 A 
ATOM      8  C18 UNL     1     -22.176  11.764 -18.519  0.00  0.00    +0.043 A 
ATOM      9  C19 UNL     1     -22.671  13.043 -18.388  0.00  0.00    +0.097 A 
ATOM     10  C20 UNL     1     -21.842  14.213 -18.217  0.00  0.00    +0.103 A 
ATOM     11  N5  UNL     1     -22.454  15.390 -18.029  0.00  0.00    -0.211 NA
ATOM     12  N6  UNL     1     -24.022  12.929 -18.462  0.00  0.00    -0.247 N 
ATOM     13  N7  UNL     1     -24.445  11.660 -18.630  0.00  0.00    -0.164 NA
ATOM     14  C21 UNL     1     -23.312  10.923 -18.668  0.00  0.00    +0.159 A 
ENDROOT
BRANCH   1  17
ATOM     15  C6  UNL     1     -20.729  21.001 -18.508  0.00  0.00    +0.049 A 
ATOM     16  C7  UNL     1     -21.296  19.725 -18.618  0.00  0.00    +0.034 A 
ATOM     17  C8  UNL     1     -21.757  18.989 -17.519  0.00  0.00    +0.109 A 
ATOM     18  C9  UNL     1     -21.665  19.575 -16.245  0.00  0.00    +0.162 A 
ATOM     19  C10 UNL     1     -21.120  20.852 -16.112  0.00  0.00    +0.040 A 
ATOM     20  C11 UNL     1     -20.667  21.552 -17.226  0.00  0.00    +0.018 A 
BRANCH  15  25
ATOM     21  C1  UNL     1     -18.047  23.569 -22.306  0.00  0.00    +0.090 C 
ATOM     22  N1  UNL     1     -18.172  22.296 -21.620  0.00  0.00    -0.269 NA
ATOM     23  C2  UNL     1     -18.047  22.555 -20.184  0.00  0.00    +0.094 C 
ATOM     24  C3  UNL     1     -19.344  22.776 -19.398  0.00  0.00    +0.108 C 
ATOM     25  N2  UNL     1     -20.321  21.715 -19.633  0.00  0.00    -0.305 N 
ATOM     26  C4  UNL     1     -20.127  20.919 -20.844  0.00  0.00    +0.108 C 
ATOM     27  C5  UNL     1     -19.498  21.769 -21.945  0.00  0.00    +0.094 C 
ENDBRANCH  15  25
BRANCH  18  28
ATOM     28  O1  UNL     1     -22.129  18.837 -15.186  0.00  0.00    -0.403 OA
BRANCH  28  29
ATOM     29  C12 UNL     1     -23.505  18.985 -14.868  0.00  0.00    +0.575 C 
ATOM     30  F1  UNL     1     -23.606  19.562 -13.649  0.00  0.00    -0.133 F 
ATOM     31  F2  UNL     1     -24.127  19.784 -15.761  0.00  0.00    -0.133 F 
ATOM     32  F3  UNL     1     -24.126  17.787 -14.817  0.00  0.00    -0.133 F 
ENDBRANCH  28  29
ENDBRANCH  18  28
ENDBRANCH   1  17
BRANCH  14  33
ATOM     33  C22 UNL     1     -23.307   9.464 -18.842  0.00  0.00    +0.304 C 
ATOM     34  O2  UNL     1     -22.792   8.704 -18.022  0.00  0.00    -0.265 OA
ATOM     35  N8  UNL     1     -23.927   9.033 -19.994  0.00  0.00    -0.082 NA
ENDBRANCH  14  33
BRANCH  12  36
ATOM     36  C23 UNL     1     -24.997  13.999 -18.427  0.00  0.00    +0.163 C 
BRANCH  36  37
ATOM     37  C24 UNL     1     -26.261  13.550 -19.116  0.00  0.00    +0.208 C 
ATOM     38  O3  UNL     1     -26.190  13.926 -20.483  0.00  0.00    -0.218 OA
ENDBRANCH  36  37
ENDBRANCH  12  36
TORSDOF 7
ENDMDL
