MODEL 1
REMARK VINA RESULT:    -8.087      0.000      0.000
REMARK INTER + INTRA:         -11.947
REMARK INTER:                 -10.923
REMARK INTRA:                  -1.023
REMARK UNBOUND:                -1.023
REMARK  Name = /tmp/tmp92c0wll4/5V90_candidate_0061.pdb
REMARK  6 active torsions:
REMARK  status: ('A' for Active; 'I' for Inactive)
REMARK    1  A    between atoms: C8_9  and  O1_12
REMARK    2  A    between atoms: O1_12  and  C10_13
REMARK    3  A    between atoms: C13_16  and  O3_29
REMARK    4  A    between atoms: C14_17  and  O2_23
REMARK    5  A    between atoms: O2_23  and  C19_24
REMARK    6  A    between atoms: C19_24  and  C20_25
REMARK                            x       y       z     vdW  Elec       q    Type
REMARK                         _______ _______ _______ _____ _____    ______ ____
ROOT
ATOM      1  C10 UNL     1     -21.941  16.165 -17.071  0.00  0.00    +0.148 A 
ATOM      2  C11 UNL     1     -21.859  14.860 -17.580  0.00  0.00    +0.055 A 
ATOM      3  C12 UNL     1     -20.634  14.245 -17.881  0.00  0.00    +0.045 A 
ATOM      4  C13 UNL     1     -20.575  12.946 -18.381  0.00  0.00    +0.173 A 
ATOM      5  C14 UNL     1     -21.766  12.247 -18.586  0.00  0.00    +0.174 A 
ATOM      6  C15 UNL     1     -22.982  12.866 -18.284  0.00  0.00    +0.059 A 
ATOM      7  C16 UNL     1     -23.059  14.158 -17.787  0.00  0.00    +0.087 A 
ATOM      8  N2  UNL     1     -24.261  14.695 -17.522  0.00  0.00    -0.244 NA
ATOM      9  C17 UNL     1     -24.300  15.958 -17.043  0.00  0.00    +0.102 A 
ATOM     10  C18 UNL     1     -23.182  16.735 -16.809  0.00  0.00    +0.058 A 
ENDROOT
BRANCH   4  11
ATOM     11  O3  UNL     1     -19.399  12.313 -18.686  0.00  0.00    -0.468 OA
ATOM     12  C23 UNL     1     -18.776  11.773 -17.526  0.00  0.00    +0.253 C 
ENDBRANCH   4  11
BRANCH   1  13
ATOM     13  O1  UNL     1     -20.764  16.872 -16.909  0.00  0.00    -0.451 OA
BRANCH  13  22
ATOM     14  C1  UNL     1     -20.847  24.271 -16.909  0.00  0.00    +0.052 C 
ATOM     15  C2  UNL     1     -20.822  22.804 -17.031  0.00  0.00    +0.059 A 
ATOM     16  C3  UNL     1     -20.942  21.817 -16.081  0.00  0.00    +0.019 A 
ATOM     17  C4  UNL     1     -20.847  20.561 -16.740  0.00  0.00    +0.049 A 
ATOM     18  C5  UNL     1     -20.664  20.828 -18.099  0.00  0.00    +0.083 A 
ATOM     19  N1  UNL     1     -20.656  22.191 -18.238  0.00  0.00    -0.250 NA
ATOM     20  C6  UNL     1     -20.518  19.823 -19.060  0.00  0.00    +0.022 A 
ATOM     21  C7  UNL     1     -20.567  18.500 -18.612  0.00  0.00    +0.041 A 
ATOM     22  C8  UNL     1     -20.776  18.199 -17.269  0.00  0.00    +0.173 A 
ATOM     23  C9  UNL     1     -20.893  19.222 -16.321  0.00  0.00    +0.176 A 
ATOM     24  F1  UNL     1     -21.045  18.925 -15.021  0.00  0.00    -0.201 F 
ENDBRANCH  13  22
ENDBRANCH   1  13
BRANCH   5  25
ATOM     25  O2  UNL     1     -21.682  10.971 -19.080  0.00  0.00    -0.471 OA
BRANCH  25  26
ATOM     26  C19 UNL     1     -22.909  10.552 -19.670  0.00  0.00    +0.223 C 
BRANCH  26  27
ATOM     27  C20 UNL     1     -23.519   9.390 -18.948  0.00  0.00    +0.117 C 
ATOM     28  C21 UNL     1     -24.329   8.397 -19.740  0.00  0.00    +0.023 C 
ATOM     29  C22 UNL     1     -25.017   9.340 -18.800  0.00  0.00    +0.023 C 
ATOM     30  N3  UNL     1     -22.704   8.878 -17.839  0.00  0.00    -0.131 NA
ENDBRANCH  26  27
ENDBRANCH  25  26
ENDBRANCH   5  25
TORSDOF 6
ENDMDL
