MODEL 1
REMARK VINA RESULT:    -5.492      0.000      0.000
REMARK INTER + INTRA:         -13.035
REMARK INTER:                  -9.666
REMARK INTRA:                  -3.369
REMARK UNBOUND:                -3.369
REMARK  Name = /tmp/tmpjzg4kyzj/6N2J_candidate_0066.pdb
REMARK  13 active torsions:
REMARK  status: ('A' for Active; 'I' for Inactive)
REMARK    1  A    between atoms: C10_11  and  O11_52
REMARK    2  A    between atoms: C12_13  and  O8_41
REMARK    3  A    between atoms: C18_19  and  O2_20
REMARK    4  A    between atoms: O2_20  and  C19_21
REMARK    5  A    between atoms: C19_21  and  C20_23
REMARK    6  A    between atoms: C20_23  and  C21_24
REMARK    7  A    between atoms: C21_24  and  C22_25
REMARK    8  A    between atoms: C21_24  and  N1_31
REMARK    9  A    between atoms: C28_32  and  O5_34
REMARK   10  A    between atoms: O5_34  and  C29_35
REMARK   11  A    between atoms: O8_41  and  C33_42
REMARK   12  A    between atoms: C33_42  and  C34_44
REMARK   13  A    between atoms: O11_52  and  C41_53
REMARK                            x       y       z     vdW  Elec       q    Type
REMARK                         _______ _______ _______ _____ _____    ______ ____
ROOT
ATOM      1  C1  UNL     1       2.605   8.994  -5.809  0.00  0.00    +0.029 C 
ATOM      2  C2  UNL     1       3.351  10.281  -5.738  0.00  0.00    -0.010 C 
ATOM      3  C3  UNL     1       2.785  11.484  -5.985  0.00  0.00    -0.010 C 
ATOM      4  C4  UNL     1       1.397  11.608  -6.552  0.00  0.00    +0.227 C 
ATOM      5  C5  UNL     1       1.473  12.257  -7.954  0.00  0.00    +0.186 C 
ATOM      6  O1  UNL     1       0.993  13.370  -8.175  0.00  0.00    -0.293 OA
ATOM      7  C6  UNL     1       2.200  11.478  -9.063  0.00  0.00    +0.089 C 
ATOM      8  C7  UNL     1       1.487  10.133  -9.186  0.00  0.00    +0.161 C 
ATOM      9  C8  UNL     1       1.958   9.270 -10.331  0.00  0.00    +0.067 C 
ATOM     10  C9  UNL     1       3.446   9.304 -10.496  0.00  0.00    +0.157 C 
ATOM     11  C10 UNL     1       4.367  10.154  -9.580  0.00  0.00    +0.191 C 
ATOM     12  C11 UNL     1       3.677  11.232  -8.746  0.00  0.00    +0.093 C 
ATOM     13  C12 UNL     1       4.549  12.401  -8.280  0.00  0.00    +0.201 C 
ATOM     14  C13 UNL     1       4.920  12.426  -6.764  0.00  0.00    +0.170 C 
ATOM     15  C14 UNL     1       3.680  12.716  -5.884  0.00  0.00    +0.047 C 
ATOM     16  C15 UNL     1       4.068  12.922  -4.421  0.00  0.00    +0.007 C 
ATOM     17  C16 UNL     1       3.049  14.043  -6.275  0.00  0.00    +0.007 C 
ATOM     18  C17 UNL     1       5.629  11.128  -6.347  0.00  0.00    +0.082 C 
ATOM     19  C18 UNL     1       4.815  10.256  -5.397  0.00  0.00    +0.189 C 
ATOM     20  O7  UNL     1       5.880  13.469  -6.563  0.00  0.00    -0.222 OA
ATOM     21  C40 UNL     1       4.933  10.642 -10.932  0.00  0.00    +0.185 C 
ATOM     22  O10 UNL     1       3.802  10.101 -11.650  0.00  0.00    -0.349 OA
ATOM     23  O13 UNL     1       0.083  10.278  -9.309  0.00  0.00    -0.223 OA
ATOM     24  C43 UNL     1       2.072  12.285 -10.350  0.00  0.00    +0.010 C 
ATOM     25  O14 UNL     1       0.580  12.293  -5.635  0.00  0.00    -0.211 OA
ENDROOT
BRANCH  19  26
ATOM     26  O2  UNL     1       5.348   8.943  -5.348  0.00  0.00    -0.446 OA
BRANCH  26  27
ATOM     27  C19 UNL     1       5.834   8.699  -4.094  0.00  0.00    +0.350 C 
ATOM     28  O3  UNL     1       6.878   9.155  -3.654  0.00  0.00    -0.247 OA
BRANCH  27  29
ATOM     29  C20 UNL     1       4.891   7.792  -3.346  0.00  0.00    +0.274 C 
ATOM     30  O6  UNL     1       5.013   8.027  -1.959  0.00  0.00    -0.209 OA
BRANCH  29  31
ATOM     31  C21 UNL     1       5.220   6.376  -3.761  0.00  0.00    +0.162 C 
BRANCH  31  32
ATOM     32  C22 UNL     1       4.161   5.651  -4.513  0.00  0.00    +0.001 A 
ATOM     33  C23 UNL     1       2.871   5.532  -3.961  0.00  0.00    -0.003 A 
ATOM     34  C24 UNL     1       1.866   4.846  -4.640  0.00  0.00    -0.000 A 
ATOM     35  C25 UNL     1       2.147   4.291  -5.892  0.00  0.00    -0.000 A 
ATOM     36  C26 UNL     1       3.427   4.410  -6.454  0.00  0.00    -0.000 A 
ATOM     37  C27 UNL     1       4.430   5.087  -5.766  0.00  0.00    -0.003 A 
ENDBRANCH  31  32
BRANCH  31  38
ATOM     38  N1  UNL     1       6.052   5.572  -2.922  0.00  0.00    -0.163 NA
ATOM     39  C28 UNL     1       7.254   5.045  -3.329  0.00  0.00    +0.421 C 
ATOM     40  O4  UNL     1       7.769   5.233  -4.429  0.00  0.00    -0.225 OA
BRANCH  39  41
ATOM     41  O5  UNL     1       7.791   4.295  -2.328  0.00  0.00    -0.441 OA
BRANCH  41  42
ATOM     42  C29 UNL     1       8.728   4.925  -1.433  0.00  0.00    +0.138 C 
ATOM     43  C30 UNL     1       8.053   5.470  -0.190  0.00  0.00    +0.044 C 
ATOM     44  C31 UNL     1       9.513   6.004  -2.137  0.00  0.00    +0.044 C 
ATOM     45  C32 UNL     1       9.695   3.840  -1.004  0.00  0.00    +0.044 C 
ENDBRANCH  41  42
ENDBRANCH  39  41
ENDBRANCH  31  38
ENDBRANCH  29  31
ENDBRANCH  27  29
ENDBRANCH  26  27
ENDBRANCH  19  26
BRANCH  13  46
ATOM     46  O8  UNL     1       5.720  12.536  -9.085  0.00  0.00    -0.446 OA
BRANCH  46  47
ATOM     47  C33 UNL     1       5.680  13.704  -9.778  0.00  0.00    +0.341 C 
ATOM     48  O9  UNL     1       4.847  14.581  -9.626  0.00  0.00    -0.245 OA
BRANCH  47  49
ATOM     49  C34 UNL     1       6.789  13.773 -10.747  0.00  0.00    +0.076 A 
ATOM     50  C35 UNL     1       8.089  13.816 -10.249  0.00  0.00    +0.006 A 
ATOM     51  C36 UNL     1       9.170  13.865 -11.131  0.00  0.00    +0.000 A 
ATOM     52  C37 UNL     1       8.948  13.867 -12.508  0.00  0.00    +0.000 A 
ATOM     53  C38 UNL     1       7.646  13.826 -13.002  0.00  0.00    +0.000 A 
ATOM     54  C39 UNL     1       6.563  13.775 -12.124  0.00  0.00    +0.006 A 
ENDBRANCH  47  49
ENDBRANCH  46  47
ENDBRANCH  13  46
BRANCH  11  55
ATOM     55  O11 UNL     1       5.247   9.413  -8.692  0.00  0.00    -0.451 OA
BRANCH  55  56
ATOM     56  C41 UNL     1       5.834   8.290  -9.179  0.00  0.00    +0.317 C 
ATOM     57  O12 UNL     1       6.768   8.247  -9.963  0.00  0.00    -0.250 OA
ATOM     58  C42 UNL     1       5.150   7.095  -8.613  0.00  0.00    +0.121 C 
ENDBRANCH  55  56
ENDBRANCH  11  55
TORSDOF 13
ENDMDL
