MODEL 1
REMARK VINA RESULT:    -2.881      0.000      0.000
REMARK INTER + INTRA:          -2.881
REMARK INTER:                  -2.881
REMARK INTRA:                   0.000
REMARK UNBOUND:                 0.000
REMARK  Name = /tmp/tmp0985l8v2/6N2J_candidate_0081.pdb
REMARK  0 active torsions:
REMARK  status: ('A' for Active; 'I' for Inactive)
REMARK                            x       y       z     vdW  Elec       q    Type
REMARK                         _______ _______ _______ _____ _____    ______ ____
ROOT
ATOM      1  C1  UNL     1      14.392  -8.309 -26.228  0.00  0.00    +0.042 A 
ATOM      2  C2  UNL     1      13.207  -7.621 -26.132  0.00  0.00    +0.104 A 
ATOM      3  N1  UNL     1      12.893  -6.771 -25.139  0.00  0.00    -0.200 NA
ATOM      4  C3  UNL     1      13.832  -6.615 -24.197  0.00  0.00    +0.310 A 
ATOM      5  N2  UNL     1      15.025  -7.225 -24.173  0.00  0.00    -0.200 NA
ATOM      6  C4  UNL     1      15.267  -8.060 -25.198  0.00  0.00    +0.104 A 
ATOM      7  F1  UNL     1      13.554  -5.775 -23.190  0.00  0.00    -0.161 F 
ENDROOT
TORSDOF 0
ENDMDL
