MODEL 1
REMARK VINA RESULT:    -6.063      0.000      0.000
REMARK INTER + INTRA:          -8.412
REMARK INTER:                  -7.126
REMARK INTRA:                  -1.286
REMARK UNBOUND:                -1.286
REMARK  Name = /tmp/tmpkdj1stfp/6N2J_candidate_0026.pdb
REMARK  3 active torsions:
REMARK  status: ('A' for Active; 'I' for Inactive)
REMARK    1  A    between atoms: C2_2  and  C3_3
REMARK    2  A    between atoms: C12_16  and  C17_23
REMARK    3  A    between atoms: C19_25  and  C25_34
REMARK                            x       y       z     vdW  Elec       q    Type
REMARK                         _______ _______ _______ _____ _____    ______ ____
ROOT
ATOM      1  C3  UNL     1       6.107  -6.297 -24.981  0.00  0.00    +0.249 C 
ATOM      2  O1  UNL     1       6.429  -6.810 -26.047  0.00  0.00    -0.270 OA
ATOM      3  N1  UNL     1       5.608  -5.017 -24.882  0.00  0.00    -0.273 N 
ATOM      4  C4  UNL     1       5.467  -4.254 -26.105  0.00  0.00    +0.115 C 
ATOM      5  C5  UNL     1       5.638  -2.755 -25.908  0.00  0.00    +0.115 C 
ATOM      6  N2  UNL     1       4.929  -2.204 -24.761  0.00  0.00    -0.274 N 
ATOM      7  C6  UNL     1       4.383  -3.133 -23.786  0.00  0.00    +0.099 C 
ATOM      8  C7  UNL     1       5.206  -4.406 -23.626  0.00  0.00    +0.114 C 
ATOM      9  C8  UNL     1       2.951  -3.472 -24.151  0.00  0.00    +0.069 C 
ATOM     10  C9  UNL     1       2.120  -2.215 -24.034  0.00  0.00    +0.207 C 
ATOM     11  O2  UNL     1       2.373  -1.683 -22.741  0.00  0.00    -0.474 OA
ATOM     12  C10 UNL     1       3.061  -0.499 -22.757  0.00  0.00    +0.153 A 
ATOM     13  C11 UNL     1       2.725   0.382 -21.693  0.00  0.00    +0.094 A 
ATOM     14  C12 UNL     1       3.306   1.660 -21.567  0.00  0.00    +0.041 A 
ATOM     15  C13 UNL     1       4.255   2.024 -22.522  0.00  0.00    +0.141 A 
ATOM     16  C14 UNL     1       4.618   1.163 -23.547  0.00  0.00    +0.037 A 
ATOM     17  C15 UNL     1       4.047  -0.109 -23.678  0.00  0.00    +0.091 A 
ATOM     18  C16 UNL     1       4.638  -0.850 -24.828  0.00  0.00    +0.252 C 
ATOM     19  O3  UNL     1       4.939  -0.195 -25.826  0.00  0.00    -0.270 OA
ATOM     20  F1  UNL     1       4.838   3.231 -22.460  0.00  0.00    -0.204 F 
ATOM     21 CL1  UNL     1       1.533  -0.120 -20.518  0.00  0.00    -0.079 Cl
ENDROOT
BRANCH  14  22
ATOM     22  C17 UNL     1       2.964   2.601 -20.494  0.00  0.00    +0.004 A 
ATOM     23  C18 UNL     1       1.903   3.554 -20.647  0.00  0.00    +0.020 A 
ATOM     24  C19 UNL     1       0.981   3.839 -21.731  0.00  0.00    +0.092 A 
ATOM     25  C20 UNL     1       0.101   4.862 -21.451  0.00  0.00    +0.128 A 
ATOM     26  S1  UNL     1       0.360   5.498 -19.895  0.00  0.00    -0.066 S 
ATOM     27  C21 UNL     1       1.655   4.414 -19.568  0.00  0.00    +0.059 A 
ATOM     28  C22 UNL     1       2.410   4.350 -18.382  0.00  0.00    +0.146 A 
ATOM     29  C23 UNL     1       3.432   3.421 -18.254  0.00  0.00    +0.030 A 
ATOM     30  C24 UNL     1       3.703   2.561 -19.300  0.00  0.00    +0.002 A 
ATOM     31  F2  UNL     1       2.153   5.179 -17.361  0.00  0.00    -0.204 F 
ATOM     32  N3  UNL     1      -0.876   5.358 -22.253  0.00  0.00    -0.120 NA
BRANCH  24  33
ATOM     33  C25 UNL     1       0.945   3.149 -22.988  0.00  0.00    +0.102 C 
ATOM     34  N4  UNL     1       0.882   2.616 -24.016  0.00  0.00    -0.191 NA
ENDBRANCH  24  33
ENDBRANCH  14  22
BRANCH   1  36
ATOM     35  C1  UNL     1       5.648  -8.206 -23.574  0.00  0.00    +0.005 C 
ATOM     36  C2  UNL     1       6.223  -7.006 -23.684  0.00  0.00    +0.058 C 
ENDBRANCH   1  36
TORSDOF 3
ENDMDL
