MODEL 1
REMARK VINA RESULT:    -6.199      0.000      0.000
REMARK INTER + INTRA:          -7.701
REMARK INTER:                  -6.923
REMARK INTRA:                  -0.778
REMARK UNBOUND:                -0.778
REMARK  Name = /tmp/tmp_ddyt68g/6N2J_candidate_0006.pdb
REMARK  2 active torsions:
REMARK  status: ('A' for Active; 'I' for Inactive)
REMARK    1  A    between atoms: C2_2  and  C3_3
REMARK    2  A    between atoms: C12_17  and  C16_22
REMARK                            x       y       z     vdW  Elec       q    Type
REMARK                         _______ _______ _______ _____ _____    ______ ____
ROOT
ATOM      1  C3  UNL     1       7.563  13.677  -9.447  0.00  0.00    +0.249 C 
ATOM      2  O1  UNL     1       7.619  14.394  -8.453  0.00  0.00    -0.270 OA
ATOM      3  N1  UNL     1       7.102  12.378  -9.414  0.00  0.00    -0.273 N 
ATOM      4  C4  UNL     1       6.465  11.939  -8.187  0.00  0.00    +0.115 C 
ATOM      5  C5  UNL     1       6.497  10.423  -8.010  0.00  0.00    +0.114 C 
ATOM      6  N2  UNL     1       6.024   9.741  -9.221  0.00  0.00    -0.290 N 
ATOM      7  C6  UNL     1       6.829  10.109 -10.389  0.00  0.00    +0.114 C 
ATOM      8  C7  UNL     1       6.803  11.618 -10.620  0.00  0.00    +0.115 C 
ATOM      9  C8  UNL     1       6.077   8.340  -9.011  0.00  0.00    +0.135 A 
ATOM     10  N3  UNL     1       6.930   7.614  -9.754  0.00  0.00    -0.209 NA
ATOM     11  C9  UNL     1       6.961   6.295  -9.536  0.00  0.00    +0.200 A 
ATOM     12  N4  UNL     1       6.213   5.631  -8.649  0.00  0.00    -0.222 NA
ATOM     13  C10 UNL     1       5.346   6.346  -7.921  0.00  0.00    +0.113 A 
ATOM     14  C11 UNL     1       4.514   5.722  -6.986  0.00  0.00    +0.159 A 
ATOM     15  C12 UNL     1       3.572   6.411  -6.199  0.00  0.00    +0.041 A 
ATOM     16  C13 UNL     1       3.472   7.791  -6.378  0.00  0.00    +0.060 A 
ATOM     17  C14 UNL     1       4.287   8.437  -7.302  0.00  0.00    +0.016 A 
ATOM     18  C15 UNL     1       5.232   7.732  -8.067  0.00  0.00    +0.052 A 
ATOM     19 CL1  UNL     1       2.358   8.766  -5.494  0.00  0.00    -0.082 Cl
ATOM     20  F2  UNL     1       4.613   4.389  -6.831  0.00  0.00    -0.203 F 
ENDROOT
BRANCH  15  21
ATOM     21  C16 UNL     1       2.766   5.679  -5.223  0.00  0.00    +0.021 A 
ATOM     22  C17 UNL     1       3.235   5.561  -3.890  0.00  0.00    +0.092 A 
ATOM     23  C18 UNL     1       2.463   4.856  -2.965  0.00  0.00    +0.077 A 
ATOM     24  C19 UNL     1       1.244   4.273  -3.331  0.00  0.00    +0.148 A 
ATOM     25  C20 UNL     1       0.791   4.392  -4.642  0.00  0.00    +0.030 A 
ATOM     26  C21 UNL     1       1.545   5.085  -5.578  0.00  0.00    +0.004 A 
ATOM     27  F1  UNL     1       0.503   3.601  -2.439  0.00  0.00    -0.204 F 
ATOM     28  S1  UNL     1       3.257   4.872  -1.440  0.00  0.00    -0.046 S 
ATOM     29  C22 UNL     1       4.548   5.796  -2.105  0.00  0.00    +0.201 A 
ATOM     30  N5  UNL     1       4.414   6.091  -3.380  0.00  0.00    -0.221 NA
ATOM     31  N6  UNL     1       5.598   6.161  -1.324  0.00  0.00    -0.100 NA
ENDBRANCH  15  21
BRANCH   1  33
ATOM     32  C1  UNL     1       9.313  14.371 -10.959  0.00  0.00    +0.005 C 
ATOM     33  C2  UNL     1       8.012  14.130 -10.786  0.00  0.00    +0.058 C 
ENDBRANCH   1  33
TORSDOF 2
ENDMDL
