MODEL 1
REMARK VINA RESULT:    -5.894      0.000      0.000
REMARK INTER + INTRA:          -6.294
REMARK INTER:                  -6.927
REMARK INTRA:                   0.634
REMARK UNBOUND:                 0.634
REMARK  Name = /tmp/tmp7o6bhoc1/6N2J_candidate_0018.pdb
REMARK  3 active torsions:
REMARK  status: ('A' for Active; 'I' for Inactive)
REMARK    1  A    between atoms: C4_6  and  C5_7
REMARK    2  A    between atoms: C9_11  and  C12_14
REMARK    3  A    between atoms: C27_32  and  C29_34
REMARK                            x       y       z     vdW  Elec       q    Type
REMARK                         _______ _______ _______ _____ _____    ______ ____
ROOT
ATOM      1  C5  UNL     1      13.189 -13.313 -24.483  0.00  0.00    +0.149 C 
ATOM      2  C6  UNL     1      14.539 -12.935 -25.150  0.00  0.00    +0.002 A 
ATOM      3  C7  UNL     1      15.212 -11.773 -24.737  0.00  0.00    -0.002 A 
ATOM      4  C8  UNL     1      16.300 -11.245 -25.437  0.00  0.00    +0.031 A 
ATOM      5  C9  UNL     1      16.803 -11.943 -26.537  0.00  0.00    +0.068 A 
ATOM      6  C10 UNL     1      16.170 -13.116 -26.950  0.00  0.00    +0.010 A 
ATOM      7  C11 UNL     1      15.032 -13.579 -26.287  0.00  0.00    -0.002 A 
ATOM      8  C13 UNL     1      16.811  -9.899 -25.010  0.00  0.00    +0.233 C 
ATOM      9  O1  UNL     1      16.469  -8.907 -25.984  0.00  0.00    -0.471 OA
ATOM     10  C14 UNL     1      15.333  -8.263 -25.578  0.00  0.00    +0.139 A 
ATOM     11  C15 UNL     1      15.418  -7.024 -24.960  0.00  0.00    +0.037 A 
ATOM     12  C16 UNL     1      14.243  -6.350 -24.631  0.00  0.00    +0.003 A 
ATOM     13  C17 UNL     1      12.998  -6.914 -24.925  0.00  0.00    +0.000 A 
ATOM     14  C18 UNL     1      12.894  -8.158 -25.557  0.00  0.00    +0.003 A 
ATOM     15  C19 UNL     1      14.089  -8.799 -25.905  0.00  0.00    +0.037 A 
ATOM     16  C20 UNL     1      11.585  -8.772 -25.854  0.00  0.00    +0.004 A 
ATOM     17  C21 UNL     1      11.322 -10.159 -25.710  0.00  0.00    +0.017 A 
ATOM     18  C22 UNL     1      12.269 -11.053 -25.192  0.00  0.00    -0.001 A 
ATOM     19  C23 UNL     1      12.069 -12.432 -25.075  0.00  0.00    +0.003 A 
ATOM     20  C24 UNL     1      10.829 -12.912 -25.478  0.00  0.00    -0.001 A 
ATOM     21  C25 UNL     1       9.849 -12.039 -25.963  0.00  0.00    +0.019 A 
ATOM     22  C26 UNL     1      10.065 -10.670 -26.084  0.00  0.00    +0.082 A 
ATOM     23  N4  UNL     1       9.085  -9.878 -26.545  0.00  0.00    -0.235 NA
ATOM     24  C27 UNL     1       9.337  -8.549 -26.648  0.00  0.00    +0.149 A 
ATOM     25  C28 UNL     1      10.548  -7.963 -26.322  0.00  0.00    +0.030 A 
ATOM     26  N6  UNL     1      13.299 -12.988 -23.042  0.00  0.00    -0.119 NA
ENDROOT
BRANCH   1  32
ATOM     27  C1  UNL     1      14.575 -15.710 -22.937  0.00  0.00    +0.132 C 
ATOM     28  N1  UNL     1      13.486 -15.810 -23.883  0.00  0.00    -0.309 N 
ATOM     29  C2  UNL     1      12.901 -17.000 -24.198  0.00  0.00    +0.178 A 
ATOM     30  N2  UNL     1      11.913 -16.827 -25.043  0.00  0.00    -0.223 NA
ATOM     31  C3  UNL     1      11.873 -15.480 -25.271  0.00  0.00    +0.115 A 
ATOM     32  C4  UNL     1      12.854 -14.797 -24.571  0.00  0.00    +0.081 A 
ENDBRANCH   1  32
BRANCH   5  33
ATOM     33  C12 UNL     1      17.941 -11.484 -27.271  0.00  0.00    +0.100 C 
ATOM     34  N3  UNL     1      18.861 -11.090 -27.859  0.00  0.00    -0.191 NA
ENDBRANCH   5  33
BRANCH  24  35
ATOM     35  C29 UNL     1       8.263  -7.729 -27.129  0.00  0.00    +0.120 C 
ATOM     36  N5  UNL     1       7.382  -7.065 -27.490  0.00  0.00    -0.189 NA
ENDBRANCH  24  35
TORSDOF 3
ENDMDL
