MODEL 1
REMARK VINA RESULT:    -5.892      0.000      0.000
REMARK INTER + INTRA:          -9.939
REMARK INTER:                  -8.303
REMARK INTRA:                  -1.636
REMARK UNBOUND:                -1.636
REMARK  Name = /tmp/tmp5re3fop7/6N2J_candidate_0021.pdb
REMARK  7 active torsions:
REMARK  status: ('A' for Active; 'I' for Inactive)
REMARK    1  A    between atoms: C2_2  and  C3_3
REMARK    2  A    between atoms: C3_3  and  S1_4
REMARK    3  A    between atoms: S1_4  and  N1_7
REMARK    4  A    between atoms: N1_7  and  C4_8
REMARK    5  A    between atoms: C6_10  and  C10_15
REMARK    6  A    between atoms: C10_15  and  C11_17
REMARK    7  A    between atoms: C16_23  and  C18_26
REMARK                            x       y       z     vdW  Elec       q    Type
REMARK                         _______ _______ _______ _____ _____    ______ ____
ROOT
ATOM      1  C10 UNL     1      19.151  13.543 -22.147  0.00  0.00    +0.202 C 
ATOM      2  O3  UNL     1      18.781  12.714 -21.322  0.00  0.00    -0.286 OA
ENDROOT
BRANCH   1   3
ATOM      3  C11 UNL     1      20.402  13.423 -22.881  0.00  0.00    +0.061 A 
ATOM      4  C12 UNL     1      21.654  13.827 -22.447  0.00  0.00    +0.104 A 
ATOM      5  N2  UNL     1      22.568  13.533 -23.417  0.00  0.00    -0.225 NA
ATOM      6  C13 UNL     1      21.951  12.932 -24.477  0.00  0.00    +0.162 A 
ATOM      7  C14 UNL     1      20.596  12.843 -24.175  0.00  0.00    +0.040 A 
ATOM      8  C15 UNL     1      19.769  12.247 -25.142  0.00  0.00    +0.005 A 
ATOM      9  C16 UNL     1      20.326  11.779 -26.338  0.00  0.00    +0.019 A 
ATOM     10  C17 UNL     1      21.702  11.946 -26.481  0.00  0.00    +0.101 A 
ATOM     11  N3  UNL     1      22.563  12.507 -25.598  0.00  0.00    -0.225 NA
BRANCH   9  12
ATOM     12  C18 UNL     1      19.507  11.151 -27.379  0.00  0.00    +0.002 A 
ATOM     13  C19 UNL     1      18.200  10.719 -27.115  0.00  0.00    +0.001 A 
ATOM     14  C20 UNL     1      17.416  10.122 -28.101  0.00  0.00    +0.011 A 
ATOM     15  C21 UNL     1      17.938   9.949 -29.376  0.00  0.00    +0.058 A 
ATOM     16  C22 UNL     1      19.230  10.364 -29.672  0.00  0.00    +0.011 A 
ATOM     17  C23 UNL     1      20.002  10.959 -28.677  0.00  0.00    +0.001 A 
ATOM     18 CL1  UNL     1      16.980   9.214 -30.595  0.00  0.00    -0.082 Cl
ENDBRANCH   9  12
ENDBRANCH   1   3
BRANCH   1  21
ATOM     19  C4  UNL     1      16.423  15.724 -23.509  0.00  0.00    +0.118 A 
ATOM     20  C5  UNL     1      17.226  14.612 -23.258  0.00  0.00    +0.162 A 
ATOM     21  C6  UNL     1      18.296  14.712 -22.373  0.00  0.00    +0.095 A 
ATOM     22  C7  UNL     1      18.571  15.931 -21.759  0.00  0.00    +0.145 A 
ATOM     23  C8  UNL     1      17.772  17.043 -22.005  0.00  0.00    +0.031 A 
ATOM     24  C9  UNL     1      16.696  16.940 -22.883  0.00  0.00    +0.023 A 
ATOM     25  F1  UNL     1      19.618  16.057 -20.932  0.00  0.00    -0.204 F 
ATOM     26  F2  UNL     1      16.942  13.444 -23.853  0.00  0.00    -0.203 F 
BRANCH  19  27
ATOM     27  N1  UNL     1      15.337  15.660 -24.440  0.00  0.00    -0.098 NA
BRANCH  27  28
ATOM     28  S1  UNL     1      13.782  15.544 -23.731  0.00  0.00    +0.073 S 
ATOM     29  O1  UNL     1      13.866  16.060 -22.380  0.00  0.00    -0.153 OA
ATOM     30  O2  UNL     1      12.788  16.031 -24.668  0.00  0.00    -0.153 OA
BRANCH  28  31
ATOM     31  C3  UNL     1      13.641  13.774 -23.616  0.00  0.00    +0.174 C 
BRANCH  31  33
ATOM     32  C1  UNL     1      11.751  13.043 -22.215  0.00  0.00    +0.002 C 
ATOM     33  C2  UNL     1      13.222  13.374 -22.223  0.00  0.00    +0.027 C 
ENDBRANCH  31  33
ENDBRANCH  28  31
ENDBRANCH  27  28
ENDBRANCH  19  27
ENDBRANCH   1  21
TORSDOF 7
ENDMDL
