MODEL 1
REMARK VINA RESULT:    -6.414      0.000      0.000
REMARK INTER + INTRA:          -9.638
REMARK INTER:                  -7.914
REMARK INTRA:                  -1.724
REMARK UNBOUND:                -1.724
REMARK  Name = /tmp/tmpdz1koano/6N2J_candidate_0065.pdb
REMARK  4 active torsions:
REMARK  status: ('A' for Active; 'I' for Inactive)
REMARK    1  A    between atoms: C3_3  and  N2_11
REMARK    2  A    between atoms: C4_4  and  C7_8
REMARK    3  A    between atoms: C11_14  and  C27_37
REMARK    4  A    between atoms: C23_31  and  C24_33
REMARK                            x       y       z     vdW  Elec       q    Type
REMARK                         _______ _______ _______ _____ _____    ______ ____
ROOT
ATOM      1  N2  UNL     1       1.667   0.568 -20.870  0.00  0.00    -0.257 N 
ATOM      2  C10 UNL     1       2.450   0.383 -22.034  0.00  0.00    +0.151 A 
ATOM      3  N3  UNL     1       2.630   1.433 -22.882  0.00  0.00    -0.227 NA
ATOM      4  C11 UNL     1       3.396   1.279 -23.992  0.00  0.00    +0.099 A 
ATOM      5  C12 UNL     1       4.015   0.075 -24.283  0.00  0.00    +0.076 A 
ATOM      6  C13 UNL     1       3.804  -0.985 -23.415  0.00  0.00    +0.017 A 
ATOM      7  C14 UNL     1       2.997  -0.871 -22.281  0.00  0.00    +0.050 A 
ATOM      8  C15 UNL     1       2.744  -2.016 -21.381  0.00  0.00    +0.070 A 
ATOM      9  C16 UNL     1       1.989  -1.822 -20.271  0.00  0.00    +0.125 A 
ATOM     10  C17 UNL     1       1.402  -0.453 -19.971  0.00  0.00    +0.281 A 
ATOM     11  O1  UNL     1       0.739  -0.276 -18.947  0.00  0.00    -0.265 OA
ATOM     12  N4  UNL     1       1.710  -2.894 -19.417  0.00  0.00    -0.251 N 
ATOM     13  C18 UNL     1       2.241  -4.169 -19.577  0.00  0.00    +0.249 C 
ATOM     14  O2  UNL     1       1.907  -5.124 -18.873  0.00  0.00    -0.273 OA
ATOM     15  C19 UNL     1       3.343  -4.303 -20.618  0.00  0.00    +0.170 C 
ATOM     16  N5  UNL     1       3.280  -3.278 -21.681  0.00  0.00    -0.297 N 
ATOM     17  C20 UNL     1       3.585  -3.755 -23.032  0.00  0.00    +0.113 C 
ATOM     18  C21 UNL     1       4.666  -4.829 -23.043  0.00  0.00    +0.115 C 
ATOM     19  N6  UNL     1       4.330  -5.956 -22.197  0.00  0.00    -0.272 N 
ATOM     20  C22 UNL     1       3.365  -5.740 -21.127  0.00  0.00    +0.123 C 
ATOM     21  C23 UNL     1       4.906  -7.173 -22.477  0.00  0.00    +0.249 C 
ATOM     22  O3  UNL     1       5.696  -7.341 -23.400  0.00  0.00    -0.270 OA
ATOM     23  C26 UNL     1       0.767  -2.754 -18.333  0.00  0.00    +0.120 C 
ATOM     24 CL1  UNL     1       5.038  -0.174 -25.639  0.00  0.00    -0.081 Cl
ENDROOT
BRANCH   4  25
ATOM     25  C27 UNL     1       3.499   2.478 -24.821  0.00  0.00    +0.085 A 
ATOM     26  C28 UNL     1       2.578   2.764 -25.834  0.00  0.00    +0.199 A 
ATOM     27  C29 UNL     1       2.689   3.902 -26.630  0.00  0.00    +0.042 A 
ATOM     28  C30 UNL     1       3.744   4.785 -26.423  0.00  0.00    +0.006 A 
ATOM     29  C31 UNL     1       4.678   4.528 -25.425  0.00  0.00    +0.030 A 
ATOM     30  C32 UNL     1       4.550   3.385 -24.637  0.00  0.00    +0.145 A 
ATOM     31  F1  UNL     1       5.465   3.162 -23.681  0.00  0.00    -0.204 F 
ATOM     32  O4  UNL     1       1.517   1.933 -26.066  0.00  0.00    -0.286 OA
ENDBRANCH   4  25
BRANCH   1  35
ATOM     33  C1  UNL     1      -1.083   1.209 -21.728  0.00  0.00    +0.033 C 
ATOM     34  C2  UNL     1      -0.194   2.181 -21.028  0.00  0.00    -0.003 A 
ATOM     35  C3  UNL     1       1.121   1.869 -20.647  0.00  0.00    +0.078 A 
ATOM     36  C4  UNL     1       1.890   2.890 -20.063  0.00  0.00    +0.074 A 
ATOM     37  N1  UNL     1       1.407   4.141 -19.825  0.00  0.00    -0.247 NA
ATOM     38  C5  UNL     1       0.134   4.391 -20.196  0.00  0.00    +0.098 A 
ATOM     39  C6  UNL     1      -0.695   3.459 -20.795  0.00  0.00    +0.018 A 
BRANCH  36  40
ATOM     40  C7  UNL     1       3.290   2.615 -19.600  0.00  0.00    +0.042 C 
ATOM     41  C8  UNL     1       3.477   3.069 -18.173  0.00  0.00    +0.006 C 
ATOM     42  C9  UNL     1       4.308   3.281 -20.497  0.00  0.00    +0.006 C 
ENDBRANCH  36  40
ENDBRANCH   1  35
BRANCH  21  43
ATOM     43  C24 UNL     1       4.489  -8.268 -21.569  0.00  0.00    +0.058 C 
ATOM     44  C25 UNL     1       4.909  -9.503 -21.842  0.00  0.00    +0.005 C 
ENDBRANCH  21  43
TORSDOF 4
ENDMDL
