MODEL 1
REMARK VINA RESULT:    -4.823      0.000      0.000
REMARK INTER + INTRA:          -6.159
REMARK INTER:                  -5.668
REMARK INTRA:                  -0.491
REMARK UNBOUND:                -0.491
REMARK  Name = /tmp/tmpcnqxss69/6N2J_candidate_0087.pdb
REMARK  3 active torsions:
REMARK  status: ('A' for Active; 'I' for Inactive)
REMARK    1  A    between atoms: C3_3  and  C5_7
REMARK    2  A    between atoms: N2_9  and  C6_10
REMARK    3  A    between atoms: C9_13  and  C12_16
REMARK                            x       y       z     vdW  Elec       q    Type
REMARK                         _______ _______ _______ _____ _____    ______ ____
ROOT
ATOM      1  C6  UNL     1      19.104  10.977 -27.398  0.00  0.00    +0.074 A 
ATOM      2  C7  UNL     1      17.830  10.416 -27.390  0.00  0.00    +0.017 A 
ATOM      3  C8  UNL     1      17.275   9.925 -28.570  0.00  0.00    +0.005 A 
ATOM      4  C9  UNL     1      17.983  10.000 -29.770  0.00  0.00    +0.072 A 
ATOM      5  C10 UNL     1      19.265  10.551 -29.769  0.00  0.00    +0.005 A 
ATOM      6  C11 UNL     1      19.822  11.043 -28.590  0.00  0.00    +0.017 A 
ENDROOT
BRANCH   4   7
ATOM      7  C12 UNL     1      17.401   9.437 -31.030  0.00  0.00    +0.419 C 
ATOM      8  F1  UNL     1      16.635  10.331 -31.714  0.00  0.00    -0.166 F 
ATOM      9  F2  UNL     1      16.604   8.360 -30.794  0.00  0.00    -0.166 F 
ATOM     10  F3  UNL     1      18.350   9.015 -31.912  0.00  0.00    -0.166 F 
ENDBRANCH   4   7
BRANCH   1  13
ATOM     11  C5  UNL     1      19.482  12.715 -25.658  0.00  0.00    +0.273 C 
ATOM     12  O2  UNL     1      18.679  13.554 -26.055  0.00  0.00    -0.268 OA
ATOM     13  N2  UNL     1      19.721  11.490 -26.250  0.00  0.00    -0.175 NA
BRANCH  11  16
ATOM     14  C1  UNL     1      18.639  13.680 -22.558  0.00  0.00    +0.076 C 
ATOM     15  C2  UNL     1      19.914  13.346 -23.212  0.00  0.00    +0.159 A 
ATOM     16  C3  UNL     1      20.285  12.949 -24.478  0.00  0.00    +0.111 A 
ATOM     17  C4  UNL     1      21.687  12.812 -24.377  0.00  0.00    +0.148 A 
ATOM     18  N1  UNL     1      22.137  13.100 -23.153  0.00  0.00    -0.076 NA
ATOM     19  O1  UNL     1      21.014  13.438 -22.421  0.00  0.00    -0.358 OA
ENDBRANCH  11  16
ENDBRANCH   1  13
TORSDOF 3
ENDMDL
