MODEL 1
REMARK VINA RESULT:    -5.435      0.000      0.000
REMARK INTER + INTRA:          -8.397
REMARK INTER:                  -7.342
REMARK INTRA:                  -1.056
REMARK UNBOUND:                -1.056
REMARK  Name = /tmp/tmpdh6ypyk_/6N2J_candidate_0045.pdb
REMARK  6 active torsions:
REMARK  status: ('A' for Active; 'I' for Inactive)
REMARK    1  A    between atoms: C3_3  and  C15_20
REMARK    2  A    between atoms: C9_11  and  O3_13
REMARK    3  A    between atoms: O3_13  and  C11_14
REMARK    4  A    between atoms: C15_20  and  C16_21
REMARK    5  A    between atoms: N4_27  and  S1_28
REMARK    6  A    between atoms: S1_28  and  N5_31
REMARK                            x       y       z     vdW  Elec       q    Type
REMARK                         _______ _______ _______ _____ _____    ______ ____
ROOT
ATOM      1  C1  UNL     1       1.120   0.850 -21.932  0.00  0.00    +0.031 C 
ATOM      2  C2  UNL     1       2.500   0.784 -22.496  0.00  0.00    -0.016 A 
ATOM      3  C3  UNL     1       3.287   1.867 -22.610  0.00  0.00    +0.054 A 
ATOM      4  C4  UNL     1       4.627   1.790 -23.238  0.00  0.00    +0.342 A 
ATOM      5  O1  UNL     1       5.306   2.785 -23.466  0.00  0.00    -0.245 OA
ATOM      6  O2  UNL     1       5.082   0.523 -23.598  0.00  0.00    -0.421 OA
ATOM      7  C5  UNL     1       4.279  -0.618 -23.440  0.00  0.00    +0.151 A 
ATOM      8  C6  UNL     1       2.994  -0.520 -22.916  0.00  0.00    +0.031 A 
ATOM      9  C7  UNL     1       2.232  -1.685 -22.802  0.00  0.00    +0.006 A 
ATOM     10  C8  UNL     1       2.753  -2.914 -23.202  0.00  0.00    +0.038 A 
ATOM     11  C9  UNL     1       4.056  -2.989 -23.698  0.00  0.00    +0.152 A 
ATOM     12  C10 UNL     1       4.820  -1.835 -23.846  0.00  0.00    +0.075 A 
ENDROOT
BRANCH  11  13
ATOM     13  O3  UNL     1       4.590  -4.167 -24.162  0.00  0.00    -0.422 OA
BRANCH  13  14
ATOM     14  C11 UNL     1       4.590  -5.233 -23.275  0.00  0.00    +0.325 A 
ATOM     15  N1  UNL     1       3.835  -6.310 -23.543  0.00  0.00    -0.192 NA
ATOM     16  C12 UNL     1       3.853  -7.285 -22.617  0.00  0.00    +0.105 A 
ATOM     17  C13 UNL     1       4.561  -7.228 -21.442  0.00  0.00    +0.042 A 
ATOM     18  C14 UNL     1       5.270  -6.062 -21.272  0.00  0.00    +0.105 A 
ATOM     19  N2  UNL     1       5.302  -5.046 -22.154  0.00  0.00    -0.192 NA
ENDBRANCH  13  14
ENDBRANCH  11  13
BRANCH   3  20
ATOM     20  C15 UNL     1       2.853   3.237 -22.192  0.00  0.00    +0.061 C 
BRANCH  20  21
ATOM     21  C16 UNL     1       2.937   3.514 -20.729  0.00  0.00    +0.014 A 
ATOM     22  C17 UNL     1       1.835   4.032 -20.047  0.00  0.00    +0.171 A 
ATOM     23  C18 UNL     1       1.967   4.378 -18.703  0.00  0.00    +0.200 A 
ATOM     24  N3  UNL     1       3.095   4.081 -17.983  0.00  0.00    -0.224 NA
ATOM     25  C19 UNL     1       4.145   3.612 -18.683  0.00  0.00    +0.100 A 
ATOM     26  C20 UNL     1       4.129   3.330 -20.040  0.00  0.00    +0.019 A 
ATOM     27  N4  UNL     1       0.900   4.914 -17.920  0.00  0.00    -0.063 NA
ATOM     28  F1  UNL     1       0.668   4.085 -20.703  0.00  0.00    -0.201 F 
BRANCH  27  29
ATOM     29  S1  UNL     1       0.095   6.258 -18.593  0.00  0.00    +0.148 S 
ATOM     30  O4  UNL     1      -1.143   5.826 -19.201  0.00  0.00    -0.135 OA
ATOM     31  O5  UNL     1       1.061   7.050 -19.324  0.00  0.00    -0.135 OA
BRANCH  29  32
ATOM     32  N5  UNL     1      -0.274   7.144 -17.191  0.00  0.00    -0.061 NA
ATOM     33  C21 UNL     1       0.141   6.429 -15.985  0.00  0.00    +0.138 C 
ENDBRANCH  29  32
ENDBRANCH  27  29
ENDBRANCH  20  21
ENDBRANCH   3  20
TORSDOF 6
ENDMDL
