MODEL 1
REMARK VINA RESULT:    -3.737      0.000      0.000
REMARK INTER + INTRA:          -5.539
REMARK INTER:                  -5.048
REMARK INTRA:                  -0.491
REMARK UNBOUND:                -0.491
REMARK  Name = /tmp/tmpaiiw2x8h/6N2J_candidate_0057.pdb
REMARK  6 active torsions:
REMARK  status: ('A' for Active; 'I' for Inactive)
REMARK    1  A    between atoms: C2_2  and  C3_3
REMARK    2  A    between atoms: N1_5  and  C4_6
REMARK    3  A    between atoms: C4_6  and  C5_7
REMARK    4  A    between atoms: C4_6  and  C8_12
REMARK    5  A    between atoms: C5_7  and  C6_8
REMARK    6  A    between atoms: C6_8  and  C7_9
REMARK                            x       y       z     vdW  Elec       q    Type
REMARK                         _______ _______ _______ _____ _____    ______ ____
ROOT
ATOM      1  C4  UNL     1      15.275  -9.525 -25.142  0.00  0.00    +0.198 C 
ENDROOT
BRANCH   1   4
ATOM      2  C3  UNL     1      17.579 -10.092 -25.708  0.00  0.00    +0.259 C 
ATOM      3  O1  UNL     1      18.001  -9.469 -24.738  0.00  0.00    -0.272 OA
ATOM      4  N1  UNL     1      16.229 -10.214 -25.975  0.00  0.00    -0.194 NA
BRANCH   2   6
ATOM      5  C1  UNL     1      19.846 -10.367 -26.649  0.00  0.00    +0.030 C 
ATOM      6  C2  UNL     1      18.415 -10.843 -26.724  0.00  0.00    +0.169 C 
ATOM      7  N3  UNL     1      17.912 -10.604 -28.066  0.00  0.00    -0.123 NA
ENDBRANCH   2   6
ENDBRANCH   1   4
BRANCH   1   8
ATOM      8  C8  UNL     1      14.027 -10.312 -24.784  0.00  0.00    +0.384 C 
ATOM      9  O3  UNL     1      13.055  -9.826 -24.218  0.00  0.00    -0.244 OA
ATOM     10  O4  UNL     1      14.065 -11.593 -25.224  0.00  0.00    -0.244 OA
ENDBRANCH   1   8
BRANCH   1  11
ATOM     11  C5  UNL     1      14.890  -8.190 -25.751  0.00  0.00    +0.043 C 
BRANCH  11  12
ATOM     12  C6  UNL     1      15.087  -7.012 -24.821  0.00  0.00    +0.091 C 
BRANCH  12  13
ATOM     13  C7  UNL     1      13.769  -6.457 -24.359  0.00  0.00    +0.261 C 
ATOM     14  O2  UNL     1      13.579  -5.970 -23.250  0.00  0.00    -0.272 OA
ATOM     15  N2  UNL     1      12.829  -6.538 -25.360  0.00  0.00    -0.088 NA
ENDBRANCH  12  13
ENDBRANCH  11  12
ENDBRANCH   1  11
TORSDOF 6
ENDMDL
