MODEL 1
REMARK VINA RESULT:    -6.315      0.000      0.000
REMARK INTER + INTRA:          -7.926
REMARK INTER:                  -7.422
REMARK INTRA:                  -0.504
REMARK UNBOUND:                -0.504
REMARK  Name = /tmp/tmpzp4qvp6x/6N2J_candidate_0095.pdb
REMARK  3 active torsions:
REMARK  status: ('A' for Active; 'I' for Inactive)
REMARK    1  A    between atoms: N1_3  and  C13_16
REMARK    2  A    between atoms: C15_19  and  S1_22
REMARK    3  A    between atoms: S1_22  and  C17_23
REMARK                            x       y       z     vdW  Elec       q    Type
REMARK                         _______ _______ _______ _____ _____    ______ ____
ROOT
ATOM      1  C1  UNL     1      22.654  -6.741 -27.936  0.00  0.00    +0.024 C 
ATOM      2  C2  UNL     1      21.190  -7.083 -27.742  0.00  0.00    +0.092 C 
ATOM      3  N1  UNL     1      20.907  -8.351 -28.393  0.00  0.00    -0.292 N 
ATOM      4  C3  UNL     1      21.174  -8.386 -29.819  0.00  0.00    +0.092 C 
ATOM      5  C4  UNL     1      22.638  -8.073 -30.060  0.00  0.00    +0.024 C 
ATOM      6  C5  UNL     1      23.068  -6.766 -29.409  0.00  0.00    +0.029 C 
ATOM      7  C6  UNL     1      22.428  -5.565 -30.133  0.00  0.00    +0.047 C 
ATOM      8  C7  UNL     1      23.521  -4.536 -30.049  0.00  0.00    +0.056 A 
ATOM      9  C8  UNL     1      24.736  -5.116 -29.721  0.00  0.00    +0.009 A 
ATOM     10  C9  UNL     1      24.588  -6.589 -29.597  0.00  0.00    +0.115 C 
ATOM     11  N2  UNL     1      25.410  -7.226 -28.590  0.00  0.00    -0.128 NA
ATOM     12  C10 UNL     1      25.859  -4.320 -29.631  0.00  0.00    -0.000 A 
ATOM     13  C11 UNL     1      25.711  -2.953 -29.847  0.00  0.00    +0.020 A 
ATOM     14  C12 UNL     1      24.445  -2.464 -30.160  0.00  0.00    +0.098 A 
ATOM     15  N3  UNL     1      23.333  -3.229 -30.275  0.00  0.00    -0.248 NA
ENDROOT
BRANCH   3  16
ATOM     16  C13 UNL     1      19.633  -8.834 -28.058  0.00  0.00    +0.151 A 
ATOM     17  C14 UNL     1      19.453  -9.722 -26.983  0.00  0.00    +0.134 A 
ATOM     18  N4  UNL     1      18.254 -10.213 -26.579  0.00  0.00    -0.233 NA
ATOM     19  C15 UNL     1      17.194  -9.766 -27.288  0.00  0.00    +0.130 A 
ATOM     20  C16 UNL     1      17.345  -8.871 -28.341  0.00  0.00    +0.126 A 
ATOM     21  N5  UNL     1      18.551  -8.394 -28.741  0.00  0.00    -0.225 NA
BRANCH  19  22
ATOM     22  S1  UNL     1      15.557 -10.321 -26.856  0.00  0.00    -0.065 S 
BRANCH  22  23
ATOM     23  C17 UNL     1      14.878  -8.858 -26.081  0.00  0.00    +0.046 A 
ATOM     24  C18 UNL     1      13.682  -8.234 -26.462  0.00  0.00    +0.098 A 
ATOM     25  C19 UNL     1      13.268  -7.094 -25.757  0.00  0.00    +0.181 A 
ATOM     26  N6  UNL     1      13.992  -6.578 -24.729  0.00  0.00    -0.225 NA
ATOM     27  C20 UNL     1      15.140  -7.201 -24.392  0.00  0.00    +0.101 A 
ATOM     28  C21 UNL     1      15.622  -8.325 -25.031  0.00  0.00    +0.028 A 
ATOM     29  N7  UNL     1      12.066  -6.444 -26.113  0.00  0.00    -0.106 NA
ATOM     30 CL1  UNL     1      12.730  -8.841 -27.783  0.00  0.00    -0.079 Cl
ENDBRANCH  22  23
ENDBRANCH  19  22
ENDBRANCH   3  16
TORSDOF 3
ENDMDL
