MODEL 1
REMARK VINA RESULT:    -3.578      0.000      0.000
REMARK INTER + INTRA:          -7.248
REMARK INTER:                  -6.088
REMARK INTRA:                  -1.160
REMARK UNBOUND:                -1.160
REMARK  Name = /tmp/tmpgm955bfq/6N2J_candidate_0023.pdb
REMARK  12 active torsions:
REMARK  status: ('A' for Active; 'I' for Inactive)
REMARK    1  A    between atoms: C1_1  and  C2_2
REMARK    2  A    between atoms: C1_1  and  N1_4
REMARK    3  A    between atoms: N1_4  and  C3_5
REMARK    4  A    between atoms: C5_7  and  C13_21
REMARK    5  A    between atoms: C7_9  and  C9_12
REMARK    6  A    between atoms: N2_14  and  C10_15
REMARK    7  A    between atoms: C10_15  and  C11_16
REMARK    8  A    between atoms: C11_16  and  C12_17
REMARK    9  A    between atoms: N3_23  and  C14_24
REMARK   10  A    between atoms: C14_24  and  C15_25
REMARK   11  A    between atoms: C15_25  and  C16_26
REMARK   12  A    between atoms: C17_30  and  C18_32
REMARK                            x       y       z     vdW  Elec       q    Type
REMARK                         _______ _______ _______ _____ _____    ______ ____
ROOT
ATOM      1  C3  UNL     1       1.764   2.142 -20.257  0.00  0.00    +0.065 A 
ATOM      2  C4  UNL     1       2.468   1.470 -21.289  0.00  0.00    +0.049 A 
ATOM      3  C5  UNL     1       2.247   0.096 -21.519  0.00  0.00    +0.067 A 
ATOM      4  C6  UNL     1       1.319  -0.619 -20.742  0.00  0.00    +0.040 A 
ATOM      5  C7  UNL     1       0.607   0.049 -19.727  0.00  0.00    +0.067 A 
ATOM      6  C8  UNL     1       0.827   1.420 -19.480  0.00  0.00    +0.049 A 
ATOM      7  I1  UNL     1      -0.346   2.431 -17.985  0.00  0.00    -0.041 I 
ATOM      8  I2  UNL     1       0.998  -2.706 -21.091  0.00  0.00    -0.042 I 
ATOM      9  I3  UNL     1       3.937   2.522 -22.458  0.00  0.00    -0.041 I 
ENDROOT
BRANCH   1  10
ATOM     10  N1  UNL     1       2.000   3.527 -20.023  0.00  0.00    -0.253 N 
ATOM     11  C17 UNL     1       1.309   4.479 -20.768  0.00  0.00    +0.263 C 
ATOM     12  O8  UNL     1       0.540   4.194 -21.688  0.00  0.00    -0.272 OA
BRANCH  11  13
ATOM     13  C18 UNL     1       1.518   5.923 -20.355  0.00  0.00    +0.267 C 
ATOM     14  O9  UNL     1       0.394   6.410 -19.647  0.00  0.00    -0.210 OA
ENDBRANCH  11  13
BRANCH  10  15
ATOM     15  C1  UNL     1       2.733   3.879 -18.815  0.00  0.00    +0.134 C 
BRANCH  15  16
ATOM     16  C2  UNL     1       4.166   3.386 -18.841  0.00  0.00    +0.204 C 
ATOM     17  O1  UNL     1       4.396   2.625 -17.665  0.00  0.00    -0.218 OA
ENDBRANCH  15  16
ENDBRANCH  10  15
ENDBRANCH   1  10
BRANCH   5  18
ATOM     18  C9  UNL     1      -0.353  -0.698 -18.896  0.00  0.00    +0.266 C 
ATOM     19  O2  UNL     1      -1.530  -0.765 -19.225  0.00  0.00    -0.268 OA
ATOM     20  N2  UNL     1       0.210  -1.275 -17.786  0.00  0.00    -0.199 NA
BRANCH  20  21
ATOM     21  C10 UNL     1      -0.621  -2.025 -16.882  0.00  0.00    +0.151 C 
BRANCH  21  22
ATOM     22  C11 UNL     1      -0.522  -3.525 -17.045  0.00  0.00    +0.206 C 
ATOM     23  O4  UNL     1       0.768  -3.942 -17.449  0.00  0.00    -0.218 OA
BRANCH  22  24
ATOM     24  C12 UNL     1      -1.592  -4.120 -17.931  0.00  0.00    +0.217 C 
ATOM     25  O3  UNL     1      -2.838  -3.463 -17.780  0.00  0.00    -0.218 OA
ENDBRANCH  22  24
ENDBRANCH  21  22
ENDBRANCH  20  21
ENDBRANCH   5  18
BRANCH   3  26
ATOM     26  C13 UNL     1       2.992  -0.597 -22.585  0.00  0.00    +0.266 C 
ATOM     27  O5  UNL     1       2.568  -0.620 -23.732  0.00  0.00    -0.268 OA
ATOM     28  N3  UNL     1       4.163  -1.179 -22.154  0.00  0.00    -0.199 NA
BRANCH  28  29
ATOM     29  C14 UNL     1       5.000  -1.922 -23.066  0.00  0.00    +0.151 C 
BRANCH  29  30
ATOM     30  C15 UNL     1       5.094  -3.387 -22.694  0.00  0.00    +0.206 C 
ATOM     31  O7  UNL     1       4.963  -3.509 -21.284  0.00  0.00    -0.218 OA
BRANCH  30  32
ATOM     32  C16 UNL     1       4.013  -4.194 -23.382  0.00  0.00    +0.217 C 
ATOM     33  O6  UNL     1       3.718  -3.664 -24.667  0.00  0.00    -0.218 OA
ENDBRANCH  30  32
ENDBRANCH  29  30
ENDBRANCH  28  29
ENDBRANCH   3  26
TORSDOF 12
ENDMDL
