MODEL 1
REMARK VINA RESULT:    -5.735      0.000      0.000
REMARK INTER + INTRA:         -11.684
REMARK INTER:                  -9.423
REMARK INTRA:                  -2.261
REMARK UNBOUND:                -2.261
REMARK  Name = /tmp/tmpefzn4b5c/6N2J_candidate_0049.pdb
REMARK  11 active torsions:
REMARK  status: ('A' for Active; 'I' for Inactive)
REMARK    1  A    between atoms: C4_5  and  C6_7
REMARK    2  A    between atoms: C6_7  and  C7_8
REMARK    3  A    between atoms: C9_14  and  C10_16
REMARK    4  A    between atoms: C10_16  and  C11_17
REMARK    5  A    between atoms: C11_17  and  C12_18
REMARK    6  A    between atoms: C12_18  and  C13_19
REMARK    7  A    between atoms: C13_19  and  C14_20
REMARK    8  A    between atoms: C18_27  and  C19_29
REMARK    9  A    between atoms: C19_29  and  C20_30
REMARK   10  A    between atoms: C22_32  and  O3_36
REMARK   11  A    between atoms: O3_36  and  C26_37
REMARK                            x       y       z     vdW  Elec       q    Type
REMARK                         _______ _______ _______ _____ _____    ______ ____
ROOT
ATOM      1  C14 UNL     1      -0.947   1.494 -18.806  0.00  0.00    +0.081 A 
ATOM      2  N5  UNL     1      -0.164   1.199 -17.750  0.00  0.00    -0.151 NA
ATOM      3  N6  UNL     1       0.455  -0.022 -17.684  0.00  0.00    -0.131 NA
ATOM      4  C15 UNL     1       0.266  -0.935 -18.662  0.00  0.00    +0.176 A 
ATOM      5  C16 UNL     1      -0.547  -0.653 -19.745  0.00  0.00    +0.039 A 
ATOM      6  C17 UNL     1      -1.167   0.585 -19.821  0.00  0.00    +0.019 A 
ATOM      7  N7  UNL     1       0.938  -2.156 -18.533  0.00  0.00    -0.158 NA
ATOM      8  C18 UNL     1       0.846  -3.230 -19.390  0.00  0.00    +0.251 C 
ATOM      9  O2  UNL     1       0.138  -3.327 -20.386  0.00  0.00    -0.273 OA
ENDROOT
BRANCH   1  10
ATOM     10  C13 UNL     1      -1.622   2.823 -18.843  0.00  0.00    +0.048 C 
BRANCH  10  11
ATOM     11  C12 UNL     1      -1.077   3.724 -17.757  0.00  0.00    +0.007 C 
BRANCH  11  12
ATOM     12  C11 UNL     1      -0.296   4.875 -18.351  0.00  0.00    +0.007 C 
BRANCH  12  13
ATOM     13  C10 UNL     1       1.073   5.008 -17.723  0.00  0.00    +0.055 C 
BRANCH  13  20
ATOM     14  C7  UNL     1       3.418   2.742 -22.618  0.00  0.00    +0.253 C 
ATOM     15  O1  UNL     1       2.323   3.154 -22.988  0.00  0.00    -0.273 OA
ATOM     16  N2  UNL     1       3.978   2.790 -21.363  0.00  0.00    -0.153 NA
ATOM     17  C8  UNL     1       3.421   3.313 -20.221  0.00  0.00    +0.208 A 
ATOM     18  N3  UNL     1       4.029   3.318 -19.053  0.00  0.00    -0.124 NA
ATOM     19  N4  UNL     1       3.267   3.906 -18.063  0.00  0.00    -0.144 NA
ATOM     20  C9  UNL     1       2.110   4.321 -18.525  0.00  0.00    +0.112 A 
ATOM     21  S1  UNL     1       1.873   4.036 -20.195  0.00  0.00    -0.033 S 
BRANCH  14  22
ATOM     22  C6  UNL     1       4.378   2.102 -23.579  0.00  0.00    +0.133 C 
BRANCH  22  27
ATOM     23  C1  UNL     1       5.025   4.731 -26.178  0.00  0.00    +0.003 A 
ATOM     24  C2  UNL     1       4.479   4.118 -27.299  0.00  0.00    +0.021 A 
ATOM     25  C3  UNL     1       3.919   2.863 -27.137  0.00  0.00    +0.098 A 
ATOM     26  N1  UNL     1       3.872   2.201 -25.957  0.00  0.00    -0.248 NA
ATOM     27  C4  UNL     1       4.408   2.829 -24.884  0.00  0.00    +0.068 A 
ATOM     28  C5  UNL     1       4.997   4.084 -24.948  0.00  0.00    +0.015 A 
ENDBRANCH  22  27
ENDBRANCH  14  22
ENDBRANCH  13  20
ENDBRANCH  12  13
ENDBRANCH  11  12
ENDBRANCH  10  11
ENDBRANCH   1  10
BRANCH   8  29
ATOM     29  C19 UNL     1       1.746  -4.341 -18.917  0.00  0.00    +0.114 C 
BRANCH  29  30
ATOM     30  C20 UNL     1       2.921  -4.561 -19.813  0.00  0.00    -0.010 A 
ATOM     31  C21 UNL     1       3.572  -3.467 -20.384  0.00  0.00    +0.033 A 
ATOM     32  C22 UNL     1       4.659  -3.657 -21.236  0.00  0.00    +0.147 A 
ATOM     33  C23 UNL     1       5.092  -4.954 -21.513  0.00  0.00    +0.037 A 
ATOM     34  C24 UNL     1       4.444  -6.051 -20.947  0.00  0.00    +0.003 A 
ATOM     35  C25 UNL     1       3.356  -5.854 -20.102  0.00  0.00    -0.004 A 
BRANCH  32  36
ATOM     36  O3  UNL     1       5.357  -2.658 -21.851  0.00  0.00    -0.404 OA
BRANCH  36  37
ATOM     37  C26 UNL     1       4.617  -1.846 -22.751  0.00  0.00    +0.575 C 
ATOM     38  F1  UNL     1       3.714  -2.623 -23.391  0.00  0.00    -0.133 F 
ATOM     39  F2  UNL     1       3.943  -0.878 -22.093  0.00  0.00    -0.133 F 
ATOM     40  F3  UNL     1       5.423  -1.288 -23.679  0.00  0.00    -0.133 F 
ENDBRANCH  36  37
ENDBRANCH  32  36
ENDBRANCH  29  30
ENDBRANCH   8  29
TORSDOF 11
ENDMDL
