MODEL 1
REMARK VINA RESULT:    -5.708      0.000      0.000
REMARK INTER + INTRA:          -9.393
REMARK INTER:                  -7.710
REMARK INTRA:                  -1.683
REMARK UNBOUND:                -1.683
REMARK  Name = /tmp/tmpr4xem5jw/6N2J_candidate_0073.pdb
REMARK  6 active torsions:
REMARK  status: ('A' for Active; 'I' for Inactive)
REMARK    1  A    between atoms: N2_5  and  C6_8
REMARK    2  A    between atoms: N3_11  and  C11_14
REMARK    3  A    between atoms: C13_16  and  O2_39
REMARK    4  A    between atoms: C14_17  and  N4_20
REMARK    5  A    between atoms: N7_27  and  C21_28
REMARK    6  A    between atoms: C26_33  and  P1_34
REMARK                            x       y       z     vdW  Elec       q    Type
REMARK                         _______ _______ _______ _____ _____    ______ ____
ROOT
ATOM      1  C11 UNL     1      18.696  -9.704 -27.864  0.00  0.00    +0.051 A 
ATOM      2  C12 UNL     1      17.905 -10.365 -28.810  0.00  0.00    +0.053 A 
ATOM      3  C13 UNL     1      17.024 -11.399 -28.463  0.00  0.00    +0.155 A 
ATOM      4  C14 UNL     1      16.915 -11.810 -27.125  0.00  0.00    +0.107 A 
ATOM      5  C15 UNL     1      17.715 -11.168 -26.180  0.00  0.00    +0.021 A 
ATOM      6  C16 UNL     1      18.593 -10.145 -26.543  0.00  0.00    +0.016 A 
ENDROOT
BRANCH   4   7
ATOM      7  N4  UNL     1      16.022 -12.849 -26.785  0.00  0.00    -0.175 NA
ATOM      8  C17 UNL     1      14.755 -12.779 -26.174  0.00  0.00    +0.242 A 
ATOM      9  N5  UNL     1      14.132 -13.951 -25.959  0.00  0.00    -0.210 NA
ATOM     10  C18 UNL     1      12.917 -13.913 -25.389  0.00  0.00    +0.116 A 
ATOM     11  C19 UNL     1      12.279 -12.760 -25.014  0.00  0.00    +0.110 A 
ATOM     12  C20 UNL     1      12.970 -11.585 -25.254  0.00  0.00    +0.167 A 
ATOM     13  N6  UNL     1      14.196 -11.600 -25.831  0.00  0.00    -0.194 NA
ATOM     14  N7  UNL     1      12.335 -10.363 -24.895  0.00  0.00    -0.193 NA
ATOM     15 CL1  UNL     1      10.720 -12.841 -24.301  0.00  0.00    -0.078 Cl
BRANCH  14  16
ATOM     16  C21 UNL     1      12.846  -9.048 -24.916  0.00  0.00    +0.075 A 
ATOM     17  C22 UNL     1      13.878  -8.636 -24.068  0.00  0.00    +0.017 A 
ATOM     18  C23 UNL     1      14.367  -7.333 -24.090  0.00  0.00    +0.001 A 
ATOM     19  C24 UNL     1      13.819  -6.409 -24.968  0.00  0.00    +0.000 A 
ATOM     20  C25 UNL     1      12.785  -6.797 -25.813  0.00  0.00    +0.004 A 
ATOM     21  C26 UNL     1      12.288  -8.107 -25.799  0.00  0.00    +0.045 A 
BRANCH  21  22
ATOM     22  P1  UNL     1      10.982  -8.502 -26.913  0.00  0.00    +0.137 P 
ATOM     23  O1  UNL     1       9.776  -9.184 -26.318  0.00  0.00    -0.315 OA
ATOM     24  C27 UNL     1      10.468  -7.009 -27.773  0.00  0.00    +0.072 C 
ATOM     25  C28 UNL     1      11.643  -9.502 -28.253  0.00  0.00    +0.072 C 
ENDBRANCH  21  22
ENDBRANCH  14  16
ENDBRANCH   4   7
BRANCH   1  29
ATOM     26  C6  UNL     1      21.247  -6.622 -28.592  0.00  0.00    +0.061 C 
ATOM     27  C7  UNL     1      19.944  -6.580 -29.372  0.00  0.00    +0.037 C 
ATOM     28  C8  UNL     1      19.227  -7.914 -29.390  0.00  0.00    +0.092 C 
ATOM     29  N3  UNL     1      19.601  -8.710 -28.235  0.00  0.00    -0.307 N 
ATOM     30  C9  UNL     1      21.006  -9.067 -28.117  0.00  0.00    +0.092 C 
ATOM     31  C10 UNL     1      21.912  -7.977 -28.652  0.00  0.00    +0.037 C 
BRANCH  26  36
ATOM     32  C1  UNL     1      23.072  -4.419 -32.263  0.00  0.00    +0.090 C 
ATOM     33  N1  UNL     1      23.556  -3.905 -30.994  0.00  0.00    -0.269 NA
ATOM     34  C2  UNL     1      24.219  -4.986 -30.267  0.00  0.00    +0.090 C 
ATOM     35  C3  UNL     1      23.292  -6.084 -29.737  0.00  0.00    +0.090 C 
ATOM     36  N2  UNL     1      22.193  -5.566 -28.923  0.00  0.00    -0.272 NA
ATOM     37  C4  UNL     1      21.488  -4.538 -29.689  0.00  0.00    +0.090 C 
ATOM     38  C5  UNL     1      22.416  -3.436 -30.208  0.00  0.00    +0.090 C 
ENDBRANCH  26  36
ENDBRANCH   1  29
BRANCH   3  39
ATOM     39  O2  UNL     1      16.242 -12.043 -29.390  0.00  0.00    -0.470 OA
ATOM     40  C29 UNL     1      15.255 -11.178 -29.937  0.00  0.00    +0.253 C 
ENDBRANCH   3  39
TORSDOF 6
ENDMDL
