MODEL 1
REMARK VINA RESULT:    -6.545      0.000      0.000
REMARK INTER + INTRA:         -10.284
REMARK INTER:                  -8.458
REMARK INTRA:                  -1.826
REMARK UNBOUND:                -1.826
REMARK  Name = /tmp/tmp5rzytdsi/6N2J_candidate_0003.pdb
REMARK  5 active torsions:
REMARK  status: ('A' for Active; 'I' for Inactive)
REMARK    1  A    between atoms: C2_2  and  C3_3
REMARK    2  A    between atoms: C11_11  and  C13_13
REMARK    3  A    between atoms: C18_21  and  O1_32
REMARK    4  A    between atoms: O1_32  and  C26_33
REMARK    5  A    between atoms: C26_33  and  C27_34
REMARK                            x       y       z     vdW  Elec       q    Type
REMARK                         _______ _______ _______ _____ _____    ______ ____
ROOT
ATOM      1  C13 UNL     1      15.668 -15.881 -22.051  0.00  0.00    +0.110 A 
ATOM      2  N1  UNL     1      16.064 -16.404 -23.235  0.00  0.00    -0.241 NA
ATOM      3  C14 UNL     1      15.869 -15.632 -24.323  0.00  0.00    +0.103 A 
ATOM      4  C15 UNL     1      15.285 -14.366 -24.308  0.00  0.00    +0.071 A 
ATOM      5  C16 UNL     1      14.904 -13.833 -23.078  0.00  0.00    +0.119 A 
ATOM      6  C17 UNL     1      15.107 -14.611 -21.943  0.00  0.00    +0.175 A 
ATOM      7  F1  UNL     1      14.748 -14.141 -20.735  0.00  0.00    -0.201 F 
ATOM      8  N2  UNL     1      14.359 -12.614 -22.980  0.00  0.00    -0.192 NA
ATOM      9  C18 UNL     1      14.181 -11.934 -24.122  0.00  0.00    +0.321 A 
ATOM     10  N3  UNL     1      14.544 -12.346 -25.341  0.00  0.00    -0.179 NA
ATOM     11  C19 UNL     1      15.072 -13.576 -25.446  0.00  0.00    +0.139 A 
ATOM     12  N4  UNL     1      15.438 -14.051 -26.728  0.00  0.00    -0.290 N 
ATOM     13  C20 UNL     1      15.370 -12.950 -27.710  0.00  0.00    +0.109 C 
ATOM     14  C21 UNL     1      15.412 -13.458 -29.160  0.00  0.00    +0.093 C 
ATOM     15  C22 UNL     1      16.617 -14.365 -29.373  0.00  0.00    +0.021 C 
ATOM     16  C23 UNL     1      16.129 -15.754 -28.980  0.00  0.00    +0.021 C 
ATOM     17  C24 UNL     1      14.674 -15.551 -28.578  0.00  0.00    +0.093 C 
ATOM     18  C25 UNL     1      14.570 -15.188 -27.088  0.00  0.00    +0.109 C 
ATOM     19  N5  UNL     1      14.285 -14.381 -29.381  0.00  0.00    -0.217 NA
ENDROOT
BRANCH   1  28
ATOM     20  C3  UNL     1      13.674 -18.029 -20.899  0.00  0.00    +0.043 A 
ATOM     21  C4  UNL     1      12.879 -19.013 -20.296  0.00  0.00    +0.008 A 
ATOM     22  C5  UNL     1      13.319 -19.703 -19.178  0.00  0.00    +0.001 A 
ATOM     23  C6  UNL     1      14.567 -19.411 -18.654  0.00  0.00    +0.000 A 
ATOM     24  C7  UNL     1      15.378 -18.440 -19.233  0.00  0.00    +0.004 A 
ATOM     25  C8  UNL     1      16.609 -18.232 -18.622  0.00  0.00    +0.042 A 
ATOM     26  C9  UNL     1      17.480 -17.288 -19.128  0.00  0.00    +0.196 A 
ATOM     27  C10 UNL     1      17.142 -16.543 -20.241  0.00  0.00    +0.044 A 
ATOM     28  C11 UNL     1      15.905 -16.727 -20.882  0.00  0.00    +0.024 A 
ATOM     29  C12 UNL     1      14.971 -17.703 -20.383  0.00  0.00    +0.009 A 
ATOM     30  O2  UNL     1      18.683 -17.089 -18.524  0.00  0.00    -0.287 OA
BRANCH  20  32
ATOM     31  C1  UNL     1      12.556 -16.920 -23.010  0.00  0.00    -0.009 C 
ATOM     32  C2  UNL     1      13.080 -17.402 -22.042  0.00  0.00    -0.051 C 
ENDBRANCH  20  32
ENDBRANCH   1  28
BRANCH   9  33
ATOM     33  O1  UNL     1      13.627 -10.673 -24.079  0.00  0.00    -0.445 OA
BRANCH  33  34
ATOM     34  C26 UNL     1      13.395 -10.245 -25.415  0.00  0.00    +0.223 C 
BRANCH  34  35
ATOM     35  C27 UNL     1      14.006  -8.876 -25.700  0.00  0.00    +0.086 C 
ATOM     36  C28 UNL     1      14.541  -8.857 -27.116  0.00  0.00    +0.020 C 
ATOM     37  C29 UNL     1      15.998  -9.240 -26.988  0.00  0.00    +0.019 C 
ATOM     38  C30 UNL     1      16.359  -9.015 -25.533  0.00  0.00    +0.072 C 
ATOM     39  N6  UNL     1      15.155  -8.568 -24.837  0.00  0.00    -0.272 NA
ATOM     40  C31 UNL     1      15.210  -7.114 -24.724  0.00  0.00    +0.072 C 
ATOM     41  C32 UNL     1      13.768  -6.659 -24.765  0.00  0.00    +0.019 C 
ATOM     42  C33 UNL     1      13.011  -7.755 -25.484  0.00  0.00    +0.020 C 
ENDBRANCH  34  35
ENDBRANCH  33  34
ENDBRANCH   9  33
TORSDOF 5
ENDMDL
