MODEL 1
REMARK VINA RESULT:    -6.327      0.000      0.000
REMARK INTER + INTRA:          -9.668
REMARK INTER:                  -8.546
REMARK INTRA:                  -1.122
REMARK UNBOUND:                -1.122
REMARK  Name = /tmp/tmpzczgjdlt/6N2J_candidate_0078.pdb
REMARK  6 active torsions:
REMARK  status: ('A' for Active; 'I' for Inactive)
REMARK    1  A    between atoms: C2_3  and  C3_5
REMARK    2  A    between atoms: C6_9  and  O2_11
REMARK    3  A    between atoms: O2_11  and  C8_12
REMARK    4  A    between atoms: C11_15  and  N3_18
REMARK    5  A    between atoms: N4_21  and  C15_22
REMARK    6  A    between atoms: C17_24  and  C21_29
REMARK                            x       y       z     vdW  Elec       q    Type
REMARK                         _______ _______ _______ _____ _____    ______ ____
ROOT
ATOM      1  C8  UNL     1      17.200  -9.514 -27.236  0.00  0.00    +0.148 A 
ATOM      2  C9  UNL     1      18.405 -10.055 -26.790  0.00  0.00    +0.068 A 
ATOM      3  C10 UNL     1      19.599  -9.663 -27.391  0.00  0.00    +0.158 A 
ATOM      4  C11 UNL     1      19.602  -8.741 -28.439  0.00  0.00    +0.103 A 
ATOM      5  C12 UNL     1      18.385  -8.256 -28.919  0.00  0.00    +0.022 A 
ATOM      6  C13 UNL     1      17.187  -8.640 -28.321  0.00  0.00    +0.039 A 
ATOM      7  F4  UNL     1      20.730 -10.265 -26.996  0.00  0.00    -0.203 F 
ENDROOT
BRANCH   4   8
ATOM      8  N3  UNL     1      20.756  -8.305 -29.101  0.00  0.00    -0.158 NA
ATOM      9  C14 UNL     1      21.539  -7.209 -28.746  0.00  0.00    +0.348 C 
ATOM     10  O3  UNL     1      21.180  -6.315 -27.985  0.00  0.00    -0.248 OA
ATOM     11  N4  UNL     1      22.755  -7.241 -29.425  0.00  0.00    -0.161 NA
BRANCH  11  12
ATOM     12  C15 UNL     1      23.789  -6.304 -29.328  0.00  0.00    +0.075 A 
ATOM     13  C16 UNL     1      23.587  -5.065 -29.936  0.00  0.00    +0.021 A 
ATOM     14  C17 UNL     1      24.566  -4.065 -29.893  0.00  0.00    +0.083 A 
ATOM     15  C18 UNL     1      25.761  -4.333 -29.223  0.00  0.00    +0.062 A 
ATOM     16  C19 UNL     1      25.970  -5.570 -28.613  0.00  0.00    +0.013 A 
ATOM     17  C20 UNL     1      24.986  -6.554 -28.665  0.00  0.00    +0.018 A 
ATOM     18 CL1  UNL     1      27.034  -3.179 -29.106  0.00  0.00    -0.082 Cl
BRANCH  14  19
ATOM     19  C21 UNL     1      24.292  -2.755 -30.564  0.00  0.00    +0.419 C 
ATOM     20  F1  UNL     1      23.060  -2.701 -31.139  0.00  0.00    -0.166 F 
ATOM     21  F2  UNL     1      24.368  -1.697 -29.712  0.00  0.00    -0.166 F 
ATOM     22  F3  UNL     1      25.172  -2.476 -31.568  0.00  0.00    -0.166 F 
ENDBRANCH  14  19
ENDBRANCH  11  12
ENDBRANCH   4   8
BRANCH   1  23
ATOM     23  O2  UNL     1      15.977  -9.895 -26.734  0.00  0.00    -0.453 OA
BRANCH  23  28
ATOM     24  C3  UNL     1      13.283  -7.649 -25.868  0.00  0.00    +0.139 A 
ATOM     25  N2  UNL     1      13.756  -6.961 -24.793  0.00  0.00    -0.239 NA
ATOM     26  C4  UNL     1      14.996  -7.285 -24.369  0.00  0.00    +0.102 A 
ATOM     27  C5  UNL     1      15.787  -8.260 -24.953  0.00  0.00    +0.058 A 
ATOM     28  C6  UNL     1      15.253  -8.960 -26.031  0.00  0.00    +0.149 A 
ATOM     29  C7  UNL     1      13.993  -8.644 -26.522  0.00  0.00    +0.061 A 
BRANCH  24  32
ATOM     30  C1  UNL     1       9.684  -8.158 -26.834  0.00  0.00    +0.139 C 
ATOM     31  N1  UNL     1      11.026  -8.362 -26.366  0.00  0.00    -0.198 NA
ATOM     32  C2  UNL     1      11.923  -7.316 -26.376  0.00  0.00    +0.283 C 
ATOM     33  O1  UNL     1      11.651  -6.184 -26.767  0.00  0.00    -0.267 OA
ENDBRANCH  24  32
ENDBRANCH  23  28
ENDBRANCH   1  23
TORSDOF 6
ENDMDL
