MODEL 1
REMARK VINA RESULT:    -3.076      0.000      0.000
REMARK INTER + INTRA:          -3.706
REMARK INTER:                  -3.615
REMARK INTRA:                  -0.091
REMARK UNBOUND:                -0.091
REMARK  Name = /tmp/tmpvlm2ej2k/6N2J_candidate_0085.pdb
REMARK  3 active torsions:
REMARK  status: ('A' for Active; 'I' for Inactive)
REMARK    1  A    between atoms: C1_1  and  C2_2
REMARK    2  A    between atoms: C1_1  and  C4_7
REMARK    3  A    between atoms: C2_2  and  N1_3
REMARK                            x       y       z     vdW  Elec       q    Type
REMARK                         _______ _______ _______ _____ _____    ______ ____
ROOT
ATOM      1  C2  UNL     1       5.840   7.033  -9.615  0.00  0.00    +0.141 C 
ENDROOT
BRANCH   1   2
ATOM      2  N1  UNL     1       5.989   6.000  -8.595  0.00  0.00    -0.233 NA
ATOM      3  C3  UNL     1       5.157   6.149  -7.605  0.00  0.00    +0.284 C 
ATOM      4  N2  UNL     1       5.144   5.270  -6.538  0.00  0.00    -0.104 NA
ATOM      5  N3  UNL     1       4.207   7.147  -7.462  0.00  0.00    -0.104 NA
ENDBRANCH   1   2
BRANCH   1   6
ATOM      6  C1  UNL     1       6.668   6.641 -10.812  0.00  0.00    +0.140 C 
BRANCH   6   7
ATOM      7  C4  UNL     1       7.477   7.832 -11.192  0.00  0.00    +0.367 C 
ATOM      8  O1  UNL     1       8.306   7.861 -12.088  0.00  0.00    -0.246 OA
ATOM      9  O2  UNL     1       7.162   8.887 -10.403  0.00  0.00    -0.246 OA
ENDBRANCH   6   7
ENDBRANCH   1   6
TORSDOF 3
ENDMDL
