MODEL 1
REMARK VINA RESULT:    -6.184      0.000      0.000
REMARK INTER + INTRA:          -7.840
REMARK INTER:                  -6.907
REMARK INTRA:                  -0.933
REMARK UNBOUND:                -0.933
REMARK  Name = /tmp/tmph96gyx9l/6N2J_candidate_0014.pdb
REMARK  2 active torsions:
REMARK  status: ('A' for Active; 'I' for Inactive)
REMARK    1  A    between atoms: C9_11  and  C15_20
REMARK    2  A    between atoms: C22_31  and  C23_33
REMARK                            x       y       z     vdW  Elec       q    Type
REMARK                         _______ _______ _______ _____ _____    ______ ____
ROOT
ATOM      1  C1  UNL     1       7.088  11.670 -11.273  0.00  0.00    +0.023 C 
ATOM      2  C2  UNL     1       5.864  11.346 -10.444  0.00  0.00    +0.095 C 
ATOM      3  C3  UNL     1       6.129  10.029  -9.716  0.00  0.00    +0.112 C 
ATOM      4  N1  UNL     1       4.930   9.482  -9.070  0.00  0.00    -0.291 N 
ATOM      5  C4  UNL     1       3.723   9.460  -9.915  0.00  0.00    +0.098 C 
ATOM      6  C5  UNL     1       2.613  10.242  -9.246  0.00  0.00    +0.069 C 
ATOM      7  C6  UNL     1       2.043   9.469  -8.081  0.00  0.00    +0.207 C 
ATOM      8  O1  UNL     1       3.012   9.426  -7.036  0.00  0.00    -0.474 OA
ATOM      9  C7  UNL     1       3.354   8.104  -6.865  0.00  0.00    +0.153 A 
ATOM     10  C8  UNL     1       2.691   7.381  -5.857  0.00  0.00    +0.094 A 
ATOM     11  C9  UNL     1       3.038   6.051  -5.613  0.00  0.00    +0.048 A 
ATOM     12  C10 UNL     1       4.067   5.497  -6.389  0.00  0.00    +0.159 A 
ATOM     13  C11 UNL     1       4.760   6.194  -7.382  0.00  0.00    +0.116 A 
ATOM     14  C12 UNL     1       4.411   7.527  -7.644  0.00  0.00    +0.086 A 
ATOM     15  C13 UNL     1       5.188   8.144  -8.666  0.00  0.00    +0.138 A 
ATOM     16  N2  UNL     1       6.178   7.499  -9.312  0.00  0.00    -0.209 NA
ATOM     17  C14 UNL     1       6.408   6.233  -8.965  0.00  0.00    +0.200 A 
ATOM     18  N3  UNL     1       5.734   5.552  -8.039  0.00  0.00    -0.221 NA
ATOM     19  F1  UNL     1       4.403   4.214  -6.157  0.00  0.00    -0.203 F 
ATOM     20 CL1  UNL     1       1.435   8.145  -4.931  0.00  0.00    -0.079 Cl
ATOM     21  C21 UNL     1       3.963  10.023 -11.317  0.00  0.00    +0.113 C 
ATOM     22  N4  UNL     1       4.668  11.290 -11.282  0.00  0.00    -0.274 N 
ATOM     23  C22 UNL     1       4.034  12.376 -11.842  0.00  0.00    +0.249 C 
ATOM     24  O3  UNL     1       2.973  12.283 -12.452  0.00  0.00    -0.270 OA
ENDROOT
BRANCH  11  25
ATOM     25  C15 UNL     1       2.381   5.227  -4.589  0.00  0.00    +0.069 A 
ATOM     26  C16 UNL     1       2.847   5.168  -3.270  0.00  0.00    +0.198 A 
ATOM     27  C17 UNL     1       2.219   4.387  -2.303  0.00  0.00    +0.042 A 
ATOM     28  C18 UNL     1       1.094   3.642  -2.645  0.00  0.00    +0.006 A 
ATOM     29  C19 UNL     1       0.603   3.682  -3.946  0.00  0.00    +0.030 A 
ATOM     30  C20 UNL     1       1.245   4.469  -4.902  0.00  0.00    +0.143 A 
ATOM     31  F2  UNL     1       0.754   4.490  -6.150  0.00  0.00    -0.204 F 
ATOM     32  O2  UNL     1       3.949   5.883  -2.891  0.00  0.00    -0.286 OA
ENDBRANCH  11  25
BRANCH  23  33
ATOM     33  C23 UNL     1       4.718  13.673 -11.629  0.00  0.00    +0.058 C 
ATOM     34  C24 UNL     1       4.078  14.614 -10.932  0.00  0.00    +0.005 C 
ENDBRANCH  23  33
TORSDOF 2
ENDMDL
