MODEL 1
REMARK VINA RESULT:    -6.495      0.000      0.000
REMARK INTER + INTRA:         -10.507
REMARK INTER:                  -8.773
REMARK INTRA:                  -1.734
REMARK UNBOUND:                -1.734
REMARK  Name = /tmp/tmp45x9jiym/6N2J_candidate_0035.pdb
REMARK  6 active torsions:
REMARK  status: ('A' for Active; 'I' for Inactive)
REMARK    1  A    between atoms: C7_7  and  O13_64
REMARK    2  A    between atoms: C18_19  and  O12_59
REMARK    3  A    between atoms: C25_27  and  C35_44
REMARK    4  A    between atoms: C35_44  and  C37_46
REMARK    5  A    between atoms: C37_46  and  C38_47
REMARK    6  A    between atoms: C42_51  and  O9_53
REMARK                            x       y       z     vdW  Elec       q    Type
REMARK                         _______ _______ _______ _____ _____    ______ ____
ROOT
ATOM      1  C1  UNL     1       5.796   9.687  -1.196  0.00  0.00    +0.006 C 
ATOM      2  C2  UNL     1       6.105   9.247  -2.611  0.00  0.00    +0.062 C 
ATOM      3  C3  UNL     1       5.916  10.429  -3.539  0.00  0.00    +0.008 C 
ATOM      4  C4  UNL     1       5.988  10.025  -4.993  0.00  0.00    +0.030 C 
ATOM      5  C5  UNL     1       5.120   8.812  -5.244  0.00  0.00    +0.121 C 
ATOM      6  C6  UNL     1       5.163   8.437  -6.707  0.00  0.00    +0.063 C 
ATOM      7  C7  UNL     1       4.486   7.118  -7.041  0.00  0.00    +0.136 C 
ATOM      8  C8  UNL     1       3.138   6.867  -6.449  0.00  0.00    -0.017 C 
ATOM      9  C9  UNL     1       3.002   5.844  -5.601  0.00  0.00    -0.006 C 
ATOM     10  C10 UNL     1       1.820   5.491  -4.881  0.00  0.00    -0.001 C 
ATOM     11  C11 UNL     1       1.772   4.388  -4.133  0.00  0.00    -0.000 C 
ATOM     12  C12 UNL     1       0.634   4.069  -3.334  0.00  0.00    -0.005 C 
ATOM     13  C13 UNL     1       0.503   2.884  -2.732  0.00  0.00    -0.026 C 
ATOM     14  C14 UNL     1      -0.634   2.587  -1.823  0.00  0.00    +0.022 C 
ATOM     15  C15 UNL     1      -0.162   1.987  -0.518  0.00  0.00    +0.012 C 
ATOM     16  C16 UNL     1       0.729   2.922   0.268  0.00  0.00    +0.061 C 
ATOM     17  C17 UNL     1       1.531   2.113   1.257  0.00  0.00    +0.180 C 
ATOM     18  O1  UNL     1       1.027   1.655   2.286  0.00  0.00    -0.293 OA
ATOM     19  C18 UNL     1       2.993   1.869   0.922  0.00  0.00    +0.206 C 
ATOM     20  C19 UNL     1       3.232   0.855  -0.188  0.00  0.00    +0.204 C 
ATOM     21  C20 UNL     1       4.530   0.127  -0.033  0.00  0.00    -0.015 C 
ATOM     22  C21 UNL     1       5.543   0.337  -0.884  0.00  0.00    -0.025 C 
ATOM     23  C22 UNL     1       6.846  -0.380  -0.867  0.00  0.00    +0.079 C 
ATOM     24  C23 UNL     1       7.854   0.340  -0.005  0.00  0.00    +0.158 C 
ATOM     25  O2  UNL     1       8.196  -0.128   1.081  0.00  0.00    -0.296 OA
ATOM     26  C24 UNL     1       8.411   1.635  -0.533  0.00  0.00    +0.108 C 
ATOM     27  C25 UNL     1       9.181   2.349   0.552  0.00  0.00    +0.176 C 
ATOM     28  O3  UNL     1       8.903   3.742   0.658  0.00  0.00    -0.451 OA
ATOM     29  C26 UNL     1       9.125   4.511  -0.443  0.00  0.00    +0.335 C 
ATOM     30  O4  UNL     1       9.489   4.080  -1.529  0.00  0.00    -0.248 OA
ATOM     31  C27 UNL     1       8.763   5.970  -0.172  0.00  0.00    +0.175 C 
ATOM     32  C28 UNL     1       9.117   6.434   1.228  0.00  0.00    +0.031 C 
ATOM     33  C29 UNL     1       8.051   6.107   2.258  0.00  0.00    +0.004 C 
ATOM     34  C30 UNL     1       6.672   6.508   1.784  0.00  0.00    +0.022 C 
ATOM     35  C31 UNL     1       6.363   5.912   0.428  0.00  0.00    +0.094 C 
ATOM     36  N1  UNL     1       7.391   6.282  -0.525  0.00  0.00    -0.265 N 
ATOM     37  C32 UNL     1       7.121   6.642  -1.835  0.00  0.00    +0.289 C 
ATOM     38  O5  UNL     1       7.987   6.912  -2.655  0.00  0.00    -0.267 OA
ATOM     39  C33 UNL     1       5.653   6.778  -2.224  0.00  0.00    +0.279 C 
ATOM     40  O6  UNL     1       4.856   5.914  -1.861  0.00  0.00    -0.281 OA
ATOM     41  C34 UNL     1       5.298   8.022  -3.042  0.00  0.00    +0.279 C 
ATOM     42  O7  UNL     1       5.542   7.735  -4.422  0.00  0.00    -0.329 OA
ATOM     43  O8  UNL     1       3.912   8.279  -2.823  0.00  0.00    -0.187 OA
ATOM     44  C45 UNL     1       7.374  -0.562  -2.269  0.00  0.00    +0.012 C 
ATOM     45  C46 UNL     1       4.640  -0.829   1.107  0.00  0.00    +0.029 C 
ATOM     46  O11 UNL     1       2.189  -0.101  -0.275  0.00  0.00    -0.216 OA
ATOM     47  C48 UNL     1      -0.088   3.962   0.995  0.00  0.00    +0.008 C 
ATOM     48  C49 UNL     1      -1.583   1.623  -2.492  0.00  0.00    +0.005 C 
ATOM     49  C50 UNL     1       2.024   7.793  -6.794  0.00  0.00    +0.029 C 
ENDROOT
BRANCH  27  50
ATOM     50  C35 UNL     1      10.632   1.954   0.714  0.00  0.00    +0.041 C 
ATOM     51  C36 UNL     1      11.080   1.003  -0.373  0.00  0.00    +0.004 C 
BRANCH  50  52
ATOM     52  C37 UNL     1      10.961   1.398   2.081  0.00  0.00    +0.004 C 
BRANCH  52  53
ATOM     53  C38 UNL     1      11.431   2.497   3.006  0.00  0.00    +0.003 C 
ATOM     54  C39 UNL     1      10.287   2.969   3.884  0.00  0.00    +0.003 C 
ATOM     55  C40 UNL     1      10.510   4.337   4.503  0.00  0.00    +0.035 C 
ATOM     56  C41 UNL     1      11.957   4.795   4.496  0.00  0.00    +0.179 C 
ATOM     57  C42 UNL     1      12.558   4.737   3.098  0.00  0.00    +0.146 C 
ATOM     58  C43 UNL     1      12.001   3.644   2.202  0.00  0.00    +0.032 C 
ATOM     59  O10 UNL     1      12.696   3.928   5.348  0.00  0.00    -0.221 OA
BRANCH  57  60
ATOM     60  O9  UNL     1      12.550   5.995   2.436  0.00  0.00    -0.351 OA
ATOM     61  C44 UNL     1      13.804   6.655   2.555  0.00  0.00    +0.174 C 
ENDBRANCH  57  60
ENDBRANCH  52  53
ENDBRANCH  50  52
ENDBRANCH  27  50
BRANCH  19  62
ATOM     62  O12 UNL     1       3.805   3.028   0.856  0.00  0.00    -0.343 OA
ATOM     63  C47 UNL     1       4.258   3.404   2.152  0.00  0.00    +0.175 C 
ENDBRANCH  19  62
BRANCH   7  64
ATOM     64  O13 UNL     1       4.524   6.817  -8.427  0.00  0.00    -0.349 OA
ATOM     65  C51 UNL     1       5.779   6.280  -8.821  0.00  0.00    +0.174 C 
ENDBRANCH   7  64
TORSDOF 6
ENDMDL
