MODEL 1
REMARK VINA RESULT:    -5.656      0.000      0.000
REMARK INTER + INTRA:          -7.182
REMARK INTER:                  -6.648
REMARK INTRA:                  -0.534
REMARK UNBOUND:                -0.534
REMARK  Name = /tmp/tmpzdoh5usq/6N2J_candidate_0047.pdb
REMARK  3 active torsions:
REMARK  status: ('A' for Active; 'I' for Inactive)
REMARK    1  A    between atoms: C3_3  and  C23_31
REMARK    2  A    between atoms: N1_6  and  C18_26
REMARK    3  A    between atoms: C11_17  and  N6_20
REMARK                            x       y       z     vdW  Elec       q    Type
REMARK                         _______ _______ _______ _____ _____    ______ ____
ROOT
ATOM      1  C1  UNL     1       5.794  -6.219 -26.237  0.00  0.00    +0.031 C 
ATOM      2  C2  UNL     1       5.151  -5.640 -25.018  0.00  0.00    -0.010 A 
ATOM      3  C3  UNL     1       4.583  -6.370 -24.038  0.00  0.00    +0.087 A 
ATOM      4  C4  UNL     1       3.946  -5.687 -22.864  0.00  0.00    +0.264 A 
ATOM      5  O1  UNL     1       3.439  -6.357 -21.966  0.00  0.00    -0.267 OA
ATOM      6  N1  UNL     1       3.965  -4.302 -22.844  0.00  0.00    -0.282 N 
ATOM      7  C5  UNL     1       4.565  -3.531 -23.862  0.00  0.00    +0.150 A 
ATOM      8  N2  UNL     1       4.538  -2.188 -23.747  0.00  0.00    -0.195 NA
ATOM      9  C6  UNL     1       5.110  -1.444 -24.712  0.00  0.00    +0.244 A 
ATOM     10  N3  UNL     1       5.699  -2.005 -25.781  0.00  0.00    -0.210 NA
ATOM     11  C7  UNL     1       5.703  -3.346 -25.857  0.00  0.00    +0.105 A 
ATOM     12  C8  UNL     1       5.147  -4.184 -24.923  0.00  0.00    +0.050 A 
ATOM     13  N4  UNL     1       5.114  -0.039 -24.645  0.00  0.00    -0.159 NA
ATOM     14  C9  UNL     1       4.575   0.796 -23.649  0.00  0.00    +0.155 A 
ATOM     15  N5  UNL     1       4.708   2.134 -23.810  0.00  0.00    -0.226 NA
ATOM     16  C10 UNL     1       4.192   2.941 -22.852  0.00  0.00    +0.115 A 
ATOM     17  C11 UNL     1       3.507   2.527 -21.712  0.00  0.00    +0.067 A 
ATOM     18  C12 UNL     1       3.402   1.147 -21.573  0.00  0.00    +0.019 A 
ATOM     19  C13 UNL     1       3.924   0.282 -22.531  0.00  0.00    +0.037 A 
ENDROOT
BRANCH  17  20
ATOM     20  N6  UNL     1       3.029   3.406 -20.748  0.00  0.00    -0.303 N 
ATOM     21  C14 UNL     1       3.515   3.200 -19.386  0.00  0.00    +0.110 C 
ATOM     22  C15 UNL     1       2.760   4.083 -18.399  0.00  0.00    +0.110 C 
ATOM     23  N7  UNL     1       1.313   3.866 -18.374  0.00  0.00    -0.214 NA
ATOM     24  C16 UNL     1       0.810   3.388 -19.660  0.00  0.00    +0.110 C 
ATOM     25  C17 UNL     1       1.630   3.809 -20.877  0.00  0.00    +0.110 C 
ENDBRANCH  17  20
BRANCH   6  26
ATOM     26  C18 UNL     1       3.380  -3.552 -21.751  0.00  0.00    +0.090 C 
ATOM     27  C19 UNL     1       1.875  -3.692 -21.668  0.00  0.00    +0.023 C 
ATOM     28  C20 UNL     1       1.539  -3.348 -20.231  0.00  0.00    +0.002 C 
ATOM     29  C21 UNL     1       2.803  -3.567 -19.418  0.00  0.00    +0.002 C 
ATOM     30  C22 UNL     1       3.891  -3.979 -20.392  0.00  0.00    +0.023 C 
ENDBRANCH   6  26
BRANCH   3  31
ATOM     31  C23 UNL     1       4.574  -7.864 -24.138  0.00  0.00    +0.178 C 
ATOM     32  O2  UNL     1       3.643  -8.476 -24.659  0.00  0.00    -0.291 OA
ATOM     33  C24 UNL     1       5.730  -8.608 -23.539  0.00  0.00    +0.077 C 
ENDBRANCH   3  31
TORSDOF 3
ENDMDL
