MODEL 1
REMARK VINA RESULT:    -6.345      0.000      0.000
REMARK INTER + INTRA:          -9.776
REMARK INTER:                  -7.828
REMARK INTRA:                  -1.948
REMARK UNBOUND:                -1.948
REMARK  Name = /tmp/tmp_mmftw5h/6N2J_candidate_0093.pdb
REMARK  4 active torsions:
REMARK  status: ('A' for Active; 'I' for Inactive)
REMARK    1  A    between atoms: C7_9  and  C9_12
REMARK    2  A    between atoms: N3_14  and  C20_27
REMARK    3  A    between atoms: C11_16  and  C12_17
REMARK    4  A    between atoms: C26_34  and  C27_36
REMARK                            x       y       z     vdW  Elec       q    Type
REMARK                         _______ _______ _______ _____ _____    ______ ____
ROOT
ATOM      1  C9  UNL     1      13.433 -10.456 -25.930  0.00  0.00    +0.033 A 
ATOM      2  C10 UNL     1      12.710 -11.477 -25.344  0.00  0.00    +0.057 A 
ATOM      3  N3  UNL     1      13.531 -12.563 -25.378  0.00  0.00    -0.257 N 
ATOM      4  N4  UNL     1      14.731 -12.326 -25.926  0.00  0.00    -0.170 NA
ATOM      5  C11 UNL     1      14.696 -11.031 -26.285  0.00  0.00    +0.102 A 
ATOM      6  C29 UNL     1      11.347 -11.521 -24.780  0.00  0.00    +0.052 C 
ENDROOT
BRANCH   1  15
ATOM      7  C1  UNL     1      10.505  -7.034 -28.216  0.00  0.00    +0.032 C 
ATOM      8  C2  UNL     1      11.514  -7.439 -27.191  0.00  0.00    -0.010 A 
ATOM      9  C3  UNL     1      12.006  -6.432 -26.349  0.00  0.00    +0.018 A 
ATOM     10  C4  UNL     1      12.948  -6.808 -25.393  0.00  0.00    +0.104 A 
ATOM     11  C5  UNL     1      13.411  -8.110 -25.246  0.00  0.00    +0.041 A 
ATOM     12  C6  UNL     1      14.340  -8.027 -24.183  0.00  0.00    +0.124 A 
ATOM     13  N1  UNL     1      14.454  -6.792 -23.688  0.00  0.00    -0.146 NA
ATOM     14  N2  UNL     1      13.609  -6.076 -24.445  0.00  0.00    -0.148 NA
ATOM     15  C7  UNL     1      12.912  -9.115 -26.098  0.00  0.00    +0.016 A 
ATOM     16  C8  UNL     1      11.956  -8.764 -27.073  0.00  0.00    +0.054 A 
ATOM     17 CL1  UNL     1      11.311  -9.968 -28.144  0.00  0.00    -0.083 Cl
ENDBRANCH   1  15
BRANCH   5  18
ATOM     18  C12 UNL     1      15.851 -10.408 -26.929  0.00  0.00    +0.020 A 
ATOM     19  C13 UNL     1      17.131 -10.524 -26.374  0.00  0.00    +0.005 A 
ATOM     20  C14 UNL     1      18.219  -9.918 -27.018  0.00  0.00    +0.038 A 
ATOM     21  C15 UNL     1      18.007  -9.216 -28.200  0.00  0.00    +0.079 A 
ATOM     22  C16 UNL     1      16.747  -9.079 -28.787  0.00  0.00    +0.019 A 
ATOM     23  C17 UNL     1      15.682  -9.691 -28.119  0.00  0.00    +0.003 A 
ATOM     24  N5  UNL     1      19.243  -8.764 -28.565  0.00  0.00    -0.249 N 
ATOM     25  N6  UNL     1      20.235  -9.103 -27.726  0.00  0.00    -0.168 NA
ATOM     26  C18 UNL     1      19.607  -9.811 -26.781  0.00  0.00    +0.122 A 
ATOM     27  C19 UNL     1      19.552  -7.988 -29.745  0.00  0.00    +0.154 C 
ENDBRANCH   5  18
BRANCH   3  28
ATOM     28  C20 UNL     1      13.143 -13.882 -24.845  0.00  0.00    +0.105 C 
ATOM     29  C21 UNL     1      14.246 -14.939 -25.070  0.00  0.00    +0.028 C 
ATOM     30  C22 UNL     1      14.455 -14.974 -23.588  0.00  0.00    +0.040 C 
ATOM     31  C23 UNL     1      13.375 -13.973 -23.322  0.00  0.00    +0.028 C 
ATOM     32  C24 UNL     1      14.391 -16.291 -22.892  0.00  0.00    +0.095 C 
ATOM     33  N7  UNL     1      15.713 -15.968 -22.360  0.00  0.00    -0.276 N 
ATOM     34  C25 UNL     1      15.824 -14.689 -23.064  0.00  0.00    +0.095 C 
ATOM     35  C26 UNL     1      16.752 -16.812 -22.079  0.00  0.00    +0.249 C 
ATOM     36  O1  UNL     1      17.933 -16.485 -22.081  0.00  0.00    -0.270 OA
BRANCH  35  37
ATOM     37  C27 UNL     1      16.355 -18.204 -21.779  0.00  0.00    +0.058 C 
ATOM     38  C28 UNL     1      16.528 -18.584 -20.510  0.00  0.00    +0.005 C 
ENDBRANCH  35  37
ENDBRANCH   3  28
TORSDOF 4
ENDMDL
