MODEL 1
REMARK VINA RESULT:    -5.569      0.000      0.000
REMARK INTER + INTRA:         -10.258
REMARK INTER:                  -8.173
REMARK INTRA:                  -2.085
REMARK UNBOUND:                -2.085
REMARK  Name = /tmp/tmpkpds3ydh/6N2J_candidate_0002.pdb
REMARK  8 active torsions:
REMARK  status: ('A' for Active; 'I' for Inactive)
REMARK    1  A    between atoms: C2_2  and  C3_3
REMARK    2  A    between atoms: C4_4  and  N3_16
REMARK    3  A    between atoms: C7_7  and  N1_9
REMARK    4  A    between atoms: C16_20  and  C26_35
REMARK    5  A    between atoms: N6_23  and  C18_24
REMARK    6  A    between atoms: C18_24  and  C19_25
REMARK    7  A    between atoms: C19_25  and  C20_26
REMARK    8  A    between atoms: C20_26  and  N7_27
REMARK                            x       y       z     vdW  Elec       q    Type
REMARK                         _______ _______ _______ _____ _____    ______ ____
ROOT
ATOM      1  N3  UNL     1       5.937   7.258  -8.129  0.00  0.00    -0.178 NA
ATOM      2  C14 UNL     1       4.810   6.729  -7.467  0.00  0.00    +0.242 A 
ATOM      3  N4  UNL     1       4.810   5.414  -7.208  0.00  0.00    -0.211 NA
ATOM      4  C15 UNL     1       3.745   4.919  -6.558  0.00  0.00    +0.109 A 
ATOM      5  C16 UNL     1       2.672   5.660  -6.150  0.00  0.00    +0.124 A 
ATOM      6  C17 UNL     1       2.729   6.997  -6.447  0.00  0.00    +0.156 A 
ATOM      7  N5  UNL     1       3.789   7.523  -7.095  0.00  0.00    -0.196 NA
ATOM      8  N6  UNL     1       1.664   7.833  -6.052  0.00  0.00    -0.220 NA
ENDROOT
BRANCH   1  10
ATOM      9  C3  UNL     1       6.510   8.806  -9.916  0.00  0.00    -0.006 A 
ATOM     10  C4  UNL     1       6.143   8.581  -8.581  0.00  0.00    +0.070 A 
ATOM     11  C5  UNL     1       5.985   9.693  -7.753  0.00  0.00    +0.018 A 
ATOM     12  C6  UNL     1       6.181  10.988  -8.227  0.00  0.00    +0.016 A 
ATOM     13  C7  UNL     1       6.525  11.233  -9.559  0.00  0.00    +0.048 A 
ATOM     14  C8  UNL     1       6.698  10.114 -10.383  0.00  0.00    +0.012 A 
BRANCH  13  15
ATOM     15  N1  UNL     1       6.751  12.529 -10.025  0.00  0.00    -0.305 N 
ATOM     16  C9  UNL     1       7.861  13.242  -9.395  0.00  0.00    +0.108 C 
ATOM     17  C10 UNL     1       8.982  13.510 -10.399  0.00  0.00    +0.094 C 
ATOM     18  N2  UNL     1       8.584  14.324 -11.550  0.00  0.00    -0.269 NA
ATOM     19  C11 UNL     1       7.204  14.030 -11.945  0.00  0.00    +0.094 C 
ATOM     20  C12 UNL     1       6.619  12.697 -11.472  0.00  0.00    +0.108 C 
ATOM     21  C13 UNL     1       9.447  13.940 -12.655  0.00  0.00    +0.090 C 
ENDBRANCH  13  15
BRANCH   9  23
ATOM     22  C1  UNL     1       8.114   7.633 -11.375  0.00  0.00    +0.005 C 
ATOM     23  C2  UNL     1       6.686   7.677 -10.877  0.00  0.00    +0.028 C 
ENDBRANCH   9  23
ENDBRANCH   1  10
BRANCH   5  24
ATOM     24  C26 UNL     1       1.554   5.021  -5.426  0.00  0.00    +0.423 C 
ATOM     25  F1  UNL     1       1.481   5.381  -4.114  0.00  0.00    -0.166 F 
ATOM     26  F2  UNL     1       0.333   5.336  -5.948  0.00  0.00    -0.166 F 
ATOM     27  F3  UNL     1       1.607   3.660  -5.445  0.00  0.00    -0.166 F 
ENDBRANCH   5  24
BRANCH   8  28
ATOM     28  C18 UNL     1       1.862   9.207  -6.489  0.00  0.00    +0.116 C 
BRANCH  28  29
ATOM     29  C19 UNL     1       0.647   9.652  -7.266  0.00  0.00    +0.045 C 
BRANCH  29  30
ATOM     30  C20 UNL     1       0.765   9.160  -8.687  0.00  0.00    +0.095 C 
BRANCH  30  31
ATOM     31  N7  UNL     1       1.385  10.146  -9.536  0.00  0.00    -0.277 N 
ATOM     32  C21 UNL     1       0.747  11.444  -9.609  0.00  0.00    +0.125 C 
ATOM     33  C22 UNL     1       0.232  11.754 -11.008  0.00  0.00    +0.164 C 
ATOM     34  O1  UNL     1       1.279  12.277 -11.822  0.00  0.00    -0.351 OA
ATOM     35  C23 UNL     1       2.140  11.207 -12.203  0.00  0.00    +0.152 C 
ATOM     36  C24 UNL     1       3.112  10.921 -11.080  0.00  0.00    +0.117 C 
ATOM     37  C25 UNL     1       2.538   9.831 -10.223  0.00  0.00    +0.228 C 
ATOM     38  O2  UNL     1       3.075   8.727 -10.155  0.00  0.00    -0.275 OA
ENDBRANCH  30  31
ENDBRANCH  29  30
ENDBRANCH  28  29
ENDBRANCH   8  28
TORSDOF 8
ENDMDL
