MODEL 1
REMARK VINA RESULT:    -4.221      0.000      0.000
REMARK INTER + INTRA:          -8.036
REMARK INTER:                  -6.442
REMARK INTRA:                  -1.594
REMARK UNBOUND:                -1.594
REMARK  Name = /tmp/tmpyf_vnayp/6N2J_candidate_0086.pdb
REMARK  9 active torsions:
REMARK  status: ('A' for Active; 'I' for Inactive)
REMARK    1  A    between atoms: C2_2  and  N1_3
REMARK    2  A    between atoms: N1_3  and  C3_4
REMARK    3  A    between atoms: N1_3  and  C17_21
REMARK    4  A    between atoms: C3_4  and  C4_5
REMARK    5  A    between atoms: C4_5  and  C5_6
REMARK    6  A    between atoms: C5_6  and  C6_7
REMARK    7  A    between atoms: C6_7  and  N2_9
REMARK    8  A    between atoms: N2_9  and  C8_10
REMARK    9  A    between atoms: C17_21  and  C18_22
REMARK                            x       y       z     vdW  Elec       q    Type
REMARK                         _______ _______ _______ _____ _____    ______ ____
ROOT
ATOM      1  N2  UNL     1      16.047  -8.847 -26.285  0.00  0.00    -0.239 NA
ENDROOT
BRANCH   1   2
ATOM      2  C8  UNL     1      15.013  -8.112 -25.687  0.00  0.00    +0.068 A 
ATOM      3  C9  UNL     1      13.746  -8.062 -26.309  0.00  0.00    +0.033 A 
ATOM      4  C10 UNL     1      13.483  -8.730 -27.517  0.00  0.00    +0.004 A 
ATOM      5  C11 UNL     1      12.232  -8.669 -28.118  0.00  0.00    +0.012 A 
ATOM      6  C12 UNL     1      11.232  -7.934 -27.504  0.00  0.00    +0.059 A 
ATOM      7  C13 UNL     1      11.475  -7.268 -26.308  0.00  0.00    +0.031 A 
ATOM      8  C14 UNL     1      12.716  -7.316 -25.694  0.00  0.00    +0.083 A 
ATOM      9  N3  UNL     1      12.898  -6.654 -24.542  0.00  0.00    -0.244 NA
ATOM     10  C15 UNL     1      14.115  -6.718 -23.966  0.00  0.00    +0.100 A 
ATOM     11  C16 UNL     1      15.183  -7.420 -24.490  0.00  0.00    +0.037 A 
ATOM     12 CL1  UNL     1       9.678  -7.845 -28.226  0.00  0.00    -0.082 Cl
ENDBRANCH   1   2
BRANCH   1  13
ATOM     13  C6  UNL     1      16.603 -10.040 -25.669  0.00  0.00    +0.093 C 
ATOM     14  C7  UNL     1      17.983  -9.807 -25.108  0.00  0.00    +0.023 C 
BRANCH  13  15
ATOM     15  C5  UNL     1      16.510 -11.246 -26.568  0.00  0.00    +0.023 C 
BRANCH  15  16
ATOM     16  C4  UNL     1      15.197 -11.958 -26.358  0.00  0.00    +0.019 C 
BRANCH  16  17
ATOM     17  C3  UNL     1      14.876 -12.003 -24.883  0.00  0.00    +0.072 C 
BRANCH  17  18
ATOM     18  N1  UNL     1      13.706 -12.845 -24.691  0.00  0.00    -0.270 NA
BRANCH  18  20
ATOM     19  C1  UNL     1      12.940 -10.704 -23.873  0.00  0.00    +0.019 C 
ATOM     20  C2  UNL     1      12.887 -12.200 -23.674  0.00  0.00    +0.072 C 
ENDBRANCH  18  20
BRANCH  18  21
ATOM     21  C17 UNL     1      14.196 -14.092 -24.112  0.00  0.00    +0.108 C 
BRANCH  21  22
ATOM     22  C18 UNL     1      15.348 -13.829 -23.167  0.00  0.00    +0.199 C 
ATOM     23  O1  UNL     1      15.018 -14.375 -21.899  0.00  0.00    -0.219 OA
ENDBRANCH  21  22
ENDBRANCH  18  21
ENDBRANCH  17  18
ENDBRANCH  16  17
ENDBRANCH  15  16
ENDBRANCH  13  15
ENDBRANCH   1  13
TORSDOF 9
ENDMDL
