MODEL 1
REMARK VINA RESULT:    -6.559      0.000      0.000
REMARK INTER + INTRA:          -7.801
REMARK INTER:                  -7.326
REMARK INTRA:                  -0.474
REMARK UNBOUND:                -0.474
REMARK  Name = /tmp/tmpdv738mb9/6N2J_candidate_0044.pdb
REMARK  2 active torsions:
REMARK  status: ('A' for Active; 'I' for Inactive)
REMARK    1  A    between atoms: C12_16  and  C13_18
REMARK    2  A    between atoms: C15_20  and  C19_24
REMARK                            x       y       z     vdW  Elec       q    Type
REMARK                         _______ _______ _______ _____ _____    ______ ____
ROOT
ATOM      1  C1  UNL     1      17.074 -14.130 -28.006  0.00  0.00    +0.024 C 
ATOM      2  C2  UNL     1      18.201 -13.923 -27.010  0.00  0.00    +0.104 C 
ATOM      3  C3  UNL     1      18.726 -15.320 -26.673  0.00  0.00    +0.162 C 
ATOM      4  O1  UNL     1      19.945 -15.274 -25.936  0.00  0.00    -0.350 OA
ATOM      5  C4  UNL     1      20.927 -14.687 -26.793  0.00  0.00    +0.164 C 
ATOM      6  C5  UNL     1      20.580 -13.232 -27.067  0.00  0.00    +0.124 C 
ATOM      7  N1  UNL     1      19.232 -13.082 -27.621  0.00  0.00    -0.290 N 
ATOM      8  C6  UNL     1      19.027 -11.711 -27.817  0.00  0.00    +0.138 A 
ATOM      9  N2  UNL     1      19.943 -11.118 -28.604  0.00  0.00    -0.199 NA
ATOM     10  C7  UNL     1      19.828  -9.816 -28.895  0.00  0.00    +0.223 A 
ATOM     11  N3  UNL     1      18.835  -9.065 -28.422  0.00  0.00    -0.194 NA
ATOM     12  C8  UNL     1      17.939  -9.613 -27.626  0.00  0.00    +0.168 A 
ATOM     13  C9  UNL     1      17.980 -10.957 -27.276  0.00  0.00    +0.068 A 
ATOM     14  C10 UNL     1      16.997 -11.422 -26.386  0.00  0.00    +0.007 A 
ATOM     15  C11 UNL     1      16.012 -10.582 -25.898  0.00  0.00    +0.019 A 
ATOM     16  C12 UNL     1      16.035  -9.263 -26.312  0.00  0.00    +0.083 A 
ATOM     17  N4  UNL     1      16.988  -8.800 -27.158  0.00  0.00    -0.226 NA
ATOM     18  N6  UNL     1      20.778  -9.240 -29.749  0.00  0.00    -0.275 N 
ATOM     19  C21 UNL     1      22.061  -9.898 -29.520  0.00  0.00    +0.126 C 
ATOM     20  C22 UNL     1      23.080  -8.957 -28.868  0.00  0.00    +0.164 C 
ATOM     21  O3  UNL     1      22.501  -8.125 -27.859  0.00  0.00    -0.350 OA
ATOM     22  C23 UNL     1      21.478  -7.275 -28.396  0.00  0.00    +0.162 C 
ATOM     23  C24 UNL     1      20.879  -7.790 -29.695  0.00  0.00    +0.105 C 
ATOM     24  C25 UNL     1      19.687  -7.033 -30.205  0.00  0.00    +0.024 C 
ENDROOT
BRANCH  16  25
ATOM     25  C13 UNL     1      15.035  -8.291 -25.855  0.00  0.00    +0.018 A 
ATOM     26  C14 UNL     1      13.748  -8.255 -26.408  0.00  0.00    +0.006 A 
ATOM     27  C15 UNL     1      12.795  -7.331 -25.974  0.00  0.00    +0.055 A 
ATOM     28  C16 UNL     1      13.116  -6.419 -24.972  0.00  0.00    +0.005 A 
ATOM     29  C17 UNL     1      14.387  -6.434 -24.409  0.00  0.00    +0.000 A 
ATOM     30  C18 UNL     1      15.330  -7.362 -24.849  0.00  0.00    +0.002 A 
BRANCH  27  31
ATOM     31  C19 UNL     1      11.438  -7.300 -26.561  0.00  0.00    +0.265 C 
ATOM     32  O2  UNL     1      10.478  -7.755 -25.949  0.00  0.00    -0.268 OA
ATOM     33  N5  UNL     1      11.361  -6.735 -27.814  0.00  0.00    -0.200 NA
ATOM     34  C20 UNL     1      10.088  -6.657 -28.477  0.00  0.00    +0.139 C 
ENDBRANCH  27  31
ENDBRANCH  16  25
TORSDOF 2
ENDMDL
