MODEL 1
REMARK VINA RESULT:    -6.277      0.000      0.000
REMARK INTER + INTRA:         -10.295
REMARK INTER:                  -8.846
REMARK INTRA:                  -1.449
REMARK UNBOUND:                -1.449
REMARK  Name = /tmp/tmpiez7apwy/6N2J_candidate_0019.pdb
REMARK  7 active torsions:
REMARK  status: ('A' for Active; 'I' for Inactive)
REMARK    1  A    between atoms: N2_5  and  C6_8
REMARK    2  A    between atoms: C8_10  and  N3_19
REMARK    3  A    between atoms: C9_11  and  O1_14
REMARK    4  A    between atoms: O1_14  and  C12_15
REMARK    5  A    between atoms: N6_30  and  C23_36
REMARK    6  A    between atoms: C21_32  and  C22_33
REMARK    7  A    between atoms: C23_36  and  C24_37
REMARK                            x       y       z     vdW  Elec       q    Type
REMARK                         _______ _______ _______ _____ _____    ______ ____
ROOT
ATOM      1  N3  UNL     1       7.485  11.936 -11.610  0.00  0.00    -0.175 NA
ATOM      2  C13 UNL     1       6.982  11.620 -10.330  0.00  0.00    +0.241 A 
ATOM      3  N4  UNL     1       6.845  12.562  -9.376  0.00  0.00    -0.211 NA
ATOM      4  C14 UNL     1       6.363  12.184  -8.179  0.00  0.00    +0.103 A 
ATOM      5  C15 UNL     1       6.011  10.901  -7.875  0.00  0.00    +0.038 A 
ATOM      6  C16 UNL     1       5.468  10.515  -6.538  0.00  0.00    +0.003 A 
ATOM      7  C17 UNL     1       5.278   9.019  -6.246  0.00  0.00    +0.003 A 
ATOM      8  C18 UNL     1       5.422   8.145  -7.436  0.00  0.00    +0.043 A 
ATOM      9  C19 UNL     1       5.847   8.629  -8.655  0.00  0.00    +0.097 A 
ATOM     10  C20 UNL     1       6.185  10.010  -8.909  0.00  0.00    +0.103 A 
ATOM     11  N5  UNL     1       6.661  10.327 -10.120  0.00  0.00    -0.211 NA
ATOM     12  N6  UNL     1       5.865   7.563  -9.494  0.00  0.00    -0.247 N 
ATOM     13  N7  UNL     1       5.482   6.416  -8.908  0.00  0.00    -0.164 NA
ATOM     14  C21 UNL     1       5.201   6.748  -7.630  0.00  0.00    +0.159 A 
ENDROOT
BRANCH   1  17
ATOM     15  C6  UNL     1       9.580  14.836 -12.772  0.00  0.00    +0.049 A 
ATOM     16  C7  UNL     1       9.192  13.599 -12.244  0.00  0.00    +0.034 A 
ATOM     17  C8  UNL     1       7.855  13.196 -12.133  0.00  0.00    +0.109 A 
ATOM     18  C9  UNL     1       6.857  14.091 -12.551  0.00  0.00    +0.162 A 
ATOM     19  C10 UNL     1       7.218  15.337 -13.062  0.00  0.00    +0.040 A 
ATOM     20  C11 UNL     1       8.558  15.704 -13.163  0.00  0.00    +0.018 A 
BRANCH  15  25
ATOM     21  C1  UNL     1      14.974  16.169 -12.480  0.00  0.00    +0.090 C 
ATOM     22  N1  UNL     1      13.703  15.620 -12.045  0.00  0.00    -0.269 NA
ATOM     23  C2  UNL     1      12.733  16.720 -12.089  0.00  0.00    +0.094 C 
ATOM     24  C3  UNL     1      11.290  16.263 -11.857  0.00  0.00    +0.108 C 
ATOM     25  N2  UNL     1      10.923  15.219 -12.817  0.00  0.00    -0.305 N 
ATOM     26  C4  UNL     1      11.878  14.110 -12.861  0.00  0.00    +0.108 C 
ATOM     27  C5  UNL     1      13.302  14.637 -13.057  0.00  0.00    +0.094 C 
ENDBRANCH  15  25
BRANCH  18  28
ATOM     28  O1  UNL     1       5.556  13.674 -12.427  0.00  0.00    -0.403 OA
BRANCH  28  29
ATOM     29  C12 UNL     1       4.736  14.418 -11.540  0.00  0.00    +0.575 C 
ATOM     30  F1  UNL     1       3.968  15.302 -12.213  0.00  0.00    -0.133 F 
ATOM     31  F2  UNL     1       5.478  15.068 -10.619  0.00  0.00    -0.133 F 
ATOM     32  F3  UNL     1       3.916  13.563 -10.888  0.00  0.00    -0.133 F 
ENDBRANCH  28  29
ENDBRANCH  18  28
ENDBRANCH   1  17
BRANCH  14  33
ATOM     33  C22 UNL     1       4.743   5.730  -6.666  0.00  0.00    +0.304 C 
ATOM     34  O2  UNL     1       3.689   5.103  -6.769  0.00  0.00    -0.265 OA
ATOM     35  N8  UNL     1       5.616   5.536  -5.617  0.00  0.00    -0.082 NA
ENDBRANCH  14  33
BRANCH  12  36
ATOM     36  C23 UNL     1       6.200   7.555 -10.903  0.00  0.00    +0.163 C 
BRANCH  36  37
ATOM     37  C24 UNL     1       7.634   7.118 -11.074  0.00  0.00    +0.208 C 
ATOM     38  O3  UNL     1       8.244   7.946 -12.054  0.00  0.00    -0.218 OA
ENDBRANCH  36  37
ENDBRANCH  12  36
TORSDOF 7
ENDMDL
