MODEL 1
REMARK VINA RESULT:    -4.761      0.000      0.000
REMARK INTER + INTRA:          -9.212
REMARK INTER:                  -7.265
REMARK INTRA:                  -1.947
REMARK UNBOUND:                -1.947
REMARK  Name = /tmp/tmp13ur7uuy/6N2J_candidate_0055.pdb
REMARK  9 active torsions:
REMARK  status: ('A' for Active; 'I' for Inactive)
REMARK    1  A    between atoms: C5_5  and  C15_22
REMARK    2  A    between atoms: C7_8  and  C8_10
REMARK    3  A    between atoms: C8_10  and  C9_11
REMARK    4  A    between atoms: C8_10  and  N2_15
REMARK    5  A    between atoms: C13_16  and  C14_18
REMARK    6  A    between atoms: N3_24  and  C16_25
REMARK    7  A    between atoms: C16_25  and  C17_26
REMARK    8  A    between atoms: C16_25  and  C22_33
REMARK    9  A    between atoms: C17_26  and  C18_27
REMARK                            x       y       z     vdW  Elec       q    Type
REMARK                         _______ _______ _______ _____ _____    ______ ____
ROOT
ATOM      1  C1  UNL     1       5.748  14.626  -4.632  0.00  0.00    +0.000 C 
ATOM      2  C2  UNL     1       6.287  14.233  -5.962  0.00  0.00    +0.004 C 
ATOM      3  C3  UNL     1       5.513  14.697  -7.175  0.00  0.00    +0.022 C 
ATOM      4  C4  UNL     1       5.460  13.260  -6.772  0.00  0.00    +0.029 C 
ATOM      5  C5  UNL     1       6.045  12.428  -7.888  0.00  0.00    +0.154 C 
ATOM      6  N1  UNL     1       6.539  13.423  -8.840  0.00  0.00    -0.272 N 
ATOM      7  C6  UNL     1       6.143  14.786  -8.532  0.00  0.00    +0.094 C 
ATOM      8  C7  UNL     1       7.329  13.016  -9.887  0.00  0.00    +0.246 C 
ATOM      9  O1  UNL     1       7.562  11.819 -10.058  0.00  0.00    -0.273 OA
ATOM     10  C23 UNL     1       7.774  14.157  -6.022  0.00  0.00    +0.000 C 
ENDROOT
BRANCH   5  11
ATOM     11  C15 UNL     1       4.930  11.605  -8.541  0.00  0.00    +0.260 C 
ATOM     12  O3  UNL     1       4.028  12.076  -9.231  0.00  0.00    -0.272 OA
ATOM     13  N3  UNL     1       5.030  10.270  -8.212  0.00  0.00    -0.190 NA
BRANCH  13  14
ATOM     14  C16 UNL     1       4.122   9.272  -8.725  0.00  0.00    +0.186 C 
BRANCH  14  15
ATOM     15  C22 UNL     1       3.585   8.383  -7.688  0.00  0.00    +0.094 C 
ATOM     16  N5  UNL     1       3.187   7.711  -6.828  0.00  0.00    -0.194 NA
ENDBRANCH  14  15
BRANCH  14  17
ATOM     17  C17 UNL     1       4.729   8.482  -9.870  0.00  0.00    +0.046 C 
BRANCH  17  18
ATOM     18  C18 UNL     1       6.199   8.202  -9.648  0.00  0.00    +0.083 C 
ATOM     19  C19 UNL     1       7.001   8.534 -10.894  0.00  0.00    +0.033 C 
ATOM     20  C20 UNL     1       8.113   7.504 -10.903  0.00  0.00    +0.116 C 
ATOM     21  N4  UNL     1       7.566   6.383 -10.191  0.00  0.00    -0.205 NA
ATOM     22  C21 UNL     1       6.429   6.725  -9.480  0.00  0.00    +0.241 C 
ATOM     23  O4  UNL     1       5.734   5.992  -8.795  0.00  0.00    -0.273 OA
ENDBRANCH  17  18
ENDBRANCH  14  17
ENDBRANCH  13  14
ENDBRANCH   5  11
BRANCH   8  24
ATOM     24  C8  UNL     1       7.812  14.096 -10.867  0.00  0.00    +0.171 C 
BRANCH  24  25
ATOM     25  C9  UNL     1       6.943  14.383 -12.086  0.00  0.00    +0.027 C 
ATOM     26  C10 UNL     1       5.682  13.548 -12.117  0.00  0.00    +0.002 C 
ATOM     27  C11 UNL     1       7.713  14.126 -13.367  0.00  0.00    +0.002 C 
ATOM     28  C12 UNL     1       6.551  15.846 -12.104  0.00  0.00    +0.002 C 
ENDBRANCH  24  25
BRANCH  24  29
ATOM     29  N2  UNL     1       9.242  14.129 -11.081  0.00  0.00    -0.191 NA
ATOM     30  C13 UNL     1      10.050  15.188 -10.703  0.00  0.00    +0.337 C 
ATOM     31  O2  UNL     1       9.611  16.235 -10.229  0.00  0.00    -0.264 OA
BRANCH  30  32
ATOM     32  C14 UNL     1      11.527  14.925 -11.003  0.00  0.00    +0.471 C 
ATOM     33  F1  UNL     1      12.342  15.323  -9.984  0.00  0.00    -0.162 F 
ATOM     34  F2  UNL     1      11.774  13.595 -11.187  0.00  0.00    -0.162 F 
ATOM     35  F3  UNL     1      11.974  15.558 -12.121  0.00  0.00    -0.162 F 
ENDBRANCH  30  32
ENDBRANCH  24  29
ENDBRANCH   8  24
TORSDOF 9
ENDMDL
