MODEL 1
REMARK VINA RESULT:    -5.553      0.000      0.000
REMARK INTER + INTRA:          -8.482
REMARK INTER:                  -7.501
REMARK INTRA:                  -0.981
REMARK UNBOUND:                -0.981
REMARK  Name = /tmp/tmp9sv6ser9/6N2J_candidate_0088.pdb
REMARK  6 active torsions:
REMARK  status: ('A' for Active; 'I' for Inactive)
REMARK    1  A    between atoms: C3_3  and  C15_20
REMARK    2  A    between atoms: C9_11  and  O3_13
REMARK    3  A    between atoms: O3_13  and  C11_14
REMARK    4  A    between atoms: C15_20  and  C16_21
REMARK    5  A    between atoms: N4_27  and  S1_28
REMARK    6  A    between atoms: S1_28  and  N5_31
REMARK                            x       y       z     vdW  Elec       q    Type
REMARK                         _______ _______ _______ _____ _____    ______ ____
ROOT
ATOM      1  C1  UNL     1      19.662  -8.132 -30.196  0.00  0.00    +0.031 C 
ATOM      2  C2  UNL     1      19.751  -9.105 -29.067  0.00  0.00    -0.016 A 
ATOM      3  C3  UNL     1      20.874  -9.786 -28.785  0.00  0.00    +0.054 A 
ATOM      4  C4  UNL     1      20.954 -10.703 -27.623  0.00  0.00    +0.342 A 
ATOM      5  O1  UNL     1      22.009 -11.218 -27.262  0.00  0.00    -0.245 OA
ATOM      6  O2  UNL     1      19.773 -10.944 -26.929  0.00  0.00    -0.421 OA
ATOM      7  C5  UNL     1      18.584 -10.261 -27.245  0.00  0.00    +0.151 A 
ATOM      8  C6  UNL     1      18.549  -9.325 -28.274  0.00  0.00    +0.031 A 
ATOM      9  C7  UNL     1      17.355  -8.643 -28.513  0.00  0.00    +0.006 A 
ATOM     10  C8  UNL     1      16.218  -8.913 -27.751  0.00  0.00    +0.038 A 
ATOM     11  C9  UNL     1      16.274  -9.888 -26.760  0.00  0.00    +0.152 A 
ATOM     12  C10 UNL     1      17.464 -10.550 -26.473  0.00  0.00    +0.075 A 
ENDROOT
BRANCH  11  13
ATOM     13  O3  UNL     1      15.159 -10.111 -25.993  0.00  0.00    -0.422 OA
BRANCH  13  14
ATOM     14  C11 UNL     1      14.582  -8.981 -25.422  0.00  0.00    +0.325 A 
ATOM     15  N1  UNL     1      13.262  -8.763 -25.547  0.00  0.00    -0.192 NA
ATOM     16  C12 UNL     1      12.790  -7.648 -24.962  0.00  0.00    +0.105 A 
ATOM     17  C13 UNL     1      13.560  -6.755 -24.256  0.00  0.00    +0.042 A 
ATOM     18  C14 UNL     1      14.892  -7.089 -24.201  0.00  0.00    +0.105 A 
ATOM     19  N2  UNL     1      15.436  -8.185 -24.761  0.00  0.00    -0.192 NA
ENDBRANCH  13  14
ENDBRANCH  11  13
BRANCH   3  20
ATOM     20  C15 UNL     1      22.144  -9.635 -29.564  0.00  0.00    +0.061 C 
BRANCH  20  21
ATOM     21  C16 UNL     1      22.962  -8.444 -29.192  0.00  0.00    +0.014 A 
ATOM     22  C17 UNL     1      23.165  -7.422 -30.117  0.00  0.00    +0.171 A 
ATOM     23  C18 UNL     1      23.890  -6.297 -29.731  0.00  0.00    +0.200 A 
ATOM     24  N3  UNL     1      24.517  -6.191 -28.520  0.00  0.00    -0.224 NA
ATOM     25  C19 UNL     1      24.252  -7.175 -27.641  0.00  0.00    +0.100 A 
ATOM     26  C20 UNL     1      23.487  -8.302 -27.913  0.00  0.00    +0.019 A 
ATOM     27  N4  UNL     1      24.100  -5.222 -30.639  0.00  0.00    -0.063 NA
ATOM     28  F1  UNL     1      22.742  -7.610 -31.379  0.00  0.00    -0.201 F 
BRANCH  27  29
ATOM     29  S1  UNL     1      22.700  -4.279 -30.906  0.00  0.00    +0.148 S 
ATOM     30  O4  UNL     1      21.898  -4.235 -29.704  0.00  0.00    -0.135 OA
ATOM     31  O5  UNL     1      22.136  -4.665 -32.182  0.00  0.00    -0.135 OA
BRANCH  29  32
ATOM     32  N5  UNL     1      23.396  -2.745 -31.118  0.00  0.00    -0.061 NA
ATOM     33  C21 UNL     1      24.224  -2.369 -29.973  0.00  0.00    +0.138 C 
ENDBRANCH  29  32
ENDBRANCH  27  29
ENDBRANCH  20  21
ENDBRANCH   3  20
TORSDOF 6
ENDMDL
