MODEL 1
REMARK VINA RESULT:    -6.395      0.000      0.000
REMARK INTER + INTRA:          -9.615
REMARK INTER:                  -7.890
REMARK INTRA:                  -1.725
REMARK UNBOUND:                -1.725
REMARK  Name = /tmp/tmptkhymv5f/6N2J_candidate_0005.pdb
REMARK  4 active torsions:
REMARK  status: ('A' for Active; 'I' for Inactive)
REMARK    1  A    between atoms: C3_3  and  N2_11
REMARK    2  A    between atoms: C4_4  and  C7_8
REMARK    3  A    between atoms: C11_14  and  C27_37
REMARK    4  A    between atoms: C23_31  and  C24_33
REMARK                            x       y       z     vdW  Elec       q    Type
REMARK                         _______ _______ _______ _____ _____    ______ ____
ROOT
ATOM      1  N2  UNL     1       1.623   0.580 -20.866  0.00  0.00    -0.257 N 
ATOM      2  C10 UNL     1       2.401   0.403 -22.035  0.00  0.00    +0.151 A 
ATOM      3  N3  UNL     1       2.574   1.458 -22.879  0.00  0.00    -0.227 NA
ATOM      4  C11 UNL     1       3.336   1.312 -23.993  0.00  0.00    +0.099 A 
ATOM      5  C12 UNL     1       3.957   0.111 -24.291  0.00  0.00    +0.076 A 
ATOM      6  C13 UNL     1       3.753  -0.954 -23.428  0.00  0.00    +0.017 A 
ATOM      7  C14 UNL     1       2.950  -0.847 -22.291  0.00  0.00    +0.050 A 
ATOM      8  C15 UNL     1       2.707  -1.996 -21.392  0.00  0.00    +0.070 A 
ATOM      9  C16 UNL     1       1.959  -1.808 -20.277  0.00  0.00    +0.125 A 
ATOM     10  C17 UNL     1       1.363  -0.445 -19.971  0.00  0.00    +0.281 A 
ATOM     11  O1  UNL     1       0.699  -0.276 -18.946  0.00  0.00    -0.265 OA
ATOM     12  N4  UNL     1       1.691  -2.885 -19.424  0.00  0.00    -0.251 N 
ATOM     13  C18 UNL     1       2.232  -4.156 -19.589  0.00  0.00    +0.249 C 
ATOM     14  O2  UNL     1       1.909  -5.113 -18.884  0.00  0.00    -0.273 OA
ATOM     15  C19 UNL     1       3.327  -4.280 -20.638  0.00  0.00    +0.170 C 
ATOM     16  N5  UNL     1       3.250  -3.253 -21.698  0.00  0.00    -0.297 N 
ATOM     17  C20 UNL     1       3.522  -3.731 -23.056  0.00  0.00    +0.113 C 
ATOM     18  C21 UNL     1       4.610  -4.798 -23.090  0.00  0.00    +0.115 C 
ATOM     19  N6  UNL     1       4.296  -5.927 -22.239  0.00  0.00    -0.272 N 
ATOM     20  C22 UNL     1       3.355  -5.717 -21.147  0.00  0.00    +0.123 C 
ATOM     21  C23 UNL     1       4.853  -7.146 -22.548  0.00  0.00    +0.249 C 
ATOM     22  O3  UNL     1       5.611  -7.312 -23.498  0.00  0.00    -0.270 OA
ATOM     23  C26 UNL     1       0.753  -2.754 -18.334  0.00  0.00    +0.120 C 
ATOM     24 CL1  UNL     1       4.981  -0.129 -25.651  0.00  0.00    -0.081 Cl
ENDROOT
BRANCH   4  25
ATOM     25  C27 UNL     1       3.434   2.517 -24.815  0.00  0.00    +0.085 A 
ATOM     26  C28 UNL     1       2.490   2.822 -25.802  0.00  0.00    +0.199 A 
ATOM     27  C29 UNL     1       2.598   3.963 -26.596  0.00  0.00    +0.042 A 
ATOM     28  C30 UNL     1       3.671   4.829 -26.413  0.00  0.00    +0.006 A 
ATOM     29  C31 UNL     1       4.627   4.553 -25.440  0.00  0.00    +0.030 A 
ATOM     30  C32 UNL     1       4.503   3.407 -24.657  0.00  0.00    +0.145 A 
ATOM     31  F1  UNL     1       5.442   3.164 -23.728  0.00  0.00    -0.204 F 
ATOM     32  O4  UNL     1       1.411   2.010 -26.011  0.00  0.00    -0.286 OA
ENDBRANCH   4  25
BRANCH   1  35
ATOM     33  C1  UNL     1      -1.119   1.230 -21.744  0.00  0.00    +0.033 C 
ATOM     34  C2  UNL     1      -0.239   2.195 -21.022  0.00  0.00    -0.003 A 
ATOM     35  C3  UNL     1       1.074   1.879 -20.635  0.00  0.00    +0.078 A 
ATOM     36  C4  UNL     1       1.836   2.895 -20.031  0.00  0.00    +0.074 A 
ATOM     37  N1  UNL     1       1.349   4.141 -19.781  0.00  0.00    -0.247 NA
ATOM     38  C5  UNL     1       0.079   4.394 -20.159  0.00  0.00    +0.098 A 
ATOM     39  C6  UNL     1      -0.743   3.468 -20.778  0.00  0.00    +0.018 A 
BRANCH  36  40
ATOM     40  C7  UNL     1       3.235   2.619 -19.563  0.00  0.00    +0.042 C 
ATOM     41  C8  UNL     1       4.257   3.237 -20.486  0.00  0.00    +0.006 C 
ATOM     42  C9  UNL     1       3.433   3.123 -18.154  0.00  0.00    +0.006 C 
ENDBRANCH  36  40
ENDBRANCH   1  35
BRANCH  21  43
ATOM     43  C24 UNL     1       4.457  -8.245 -21.636  0.00  0.00    +0.058 C 
ATOM     44  C25 UNL     1       4.922  -9.469 -21.891  0.00  0.00    +0.005 C 
ENDBRANCH  21  43
TORSDOF 4
ENDMDL
