MODEL 1
REMARK VINA RESULT:    -6.179      0.000      0.000
REMARK INTER + INTRA:         -12.691
REMARK INTER:                 -10.513
REMARK INTRA:                  -2.178
REMARK UNBOUND:                -2.178
REMARK  Name = /tmp/tmpixq1x8r6/6N2J_candidate_0050.pdb
REMARK  12 active torsions:
REMARK  status: ('A' for Active; 'I' for Inactive)
REMARK    1  A    between atoms: C2_2  and  N1_3
REMARK    2  A    between atoms: C14_17  and  N6_46
REMARK    3  A    between atoms: C25_33  and  C26_34
REMARK    4  A    between atoms: C27_35  and  C31_40
REMARK    5  A    between atoms: C31_40  and  O5_42
REMARK    6  A    between atoms: C36_47  and  C37_49
REMARK    7  A    between atoms: C37_49  and  C38_50
REMARK    8  A    between atoms: C37_49  and  N7_53
REMARK    9  A    between atoms: C42_55  and  C43_57
REMARK   10  A    between atoms: C48_63  and  C49_65
REMARK   11  A    between atoms: C50_66  and  C51_67
REMARK   12  A    between atoms: C51_67  and  N9_70
REMARK                            x       y       z     vdW  Elec       q    Type
REMARK                         _______ _______ _______ _____ _____    ______ ____
ROOT
ATOM      1  N1  UNL     1       3.630  -6.767 -23.638  0.00  0.00    -0.327 N 
ATOM      2  C3  UNL     1       3.286  -5.438 -23.657  0.00  0.00    +0.060 A 
ATOM      3  C4  UNL     1       3.156  -5.044 -22.332  0.00  0.00    +0.014 A 
ATOM      4  C5  UNL     1       2.860  -3.695 -22.067  0.00  0.00    +0.016 A 
ATOM      5  C6  UNL     1       2.598  -2.783 -23.093  0.00  0.00    +0.048 A 
ATOM      6  C7  UNL     1       2.724  -3.237 -24.409  0.00  0.00    +0.016 A 
ATOM      7  C8  UNL     1       3.094  -4.550 -24.723  0.00  0.00    +0.018 A 
ATOM      8  N2  UNL     1       2.213  -1.456 -22.819  0.00  0.00    -0.303 N 
ATOM      9  C9  UNL     1       0.957  -1.139 -23.503  0.00  0.00    +0.123 C 
ATOM     10  C10 UNL     1      -0.253  -0.921 -22.581  0.00  0.00    +0.163 C 
ATOM     11  O1  UNL     1      -0.063  -1.403 -21.251  0.00  0.00    -0.353 OA
ATOM     12  C11 UNL     1       1.054  -0.688 -20.730  0.00  0.00    +0.137 C 
ATOM     13  C12 UNL     1       2.358  -1.071 -21.414  0.00  0.00    +0.121 C 
ATOM     14  C13 UNL     1       1.153  -0.896 -19.239  0.00  0.00    +0.062 C 
ATOM     15  C14 UNL     1      -0.122  -0.446 -18.546  0.00  0.00    +0.175 C 
ATOM     16  C15 UNL     1      -0.390  -1.358 -17.347  0.00  0.00    +0.260 C 
ATOM     17  O2  UNL     1      -0.087  -1.028 -16.200  0.00  0.00    -0.272 OA
ATOM     18  N3  UNL     1      -0.971  -2.585 -17.659  0.00  0.00    -0.205 N 
ATOM     19  C16 UNL     1      -1.229  -3.006 -19.017  0.00  0.00    +0.113 C 
ATOM     20  C17 UNL     1      -2.506  -3.808 -19.151  0.00  0.00    +0.025 C 
ATOM     21  C18 UNL     1      -2.826  -4.652 -17.939  0.00  0.00    +0.033 C 
ATOM     22  C19 UNL     1      -1.664  -4.817 -16.979  0.00  0.00    +0.192 C 
ATOM     23  N4  UNL     1      -1.078  -3.528 -16.609  0.00  0.00    -0.118 NA
ATOM     24  C20 UNL     1      -0.652  -5.825 -17.493  0.00  0.00    +0.335 C 
ATOM     25  O3  UNL     1      -0.982  -6.906 -17.979  0.00  0.00    -0.248 OA
ATOM     26  O4  UNL     1       0.635  -5.398 -17.401  0.00  0.00    -0.448 OA
ATOM     27  C21 UNL     1       1.565  -6.229 -18.103  0.00  0.00    +0.209 C 
ATOM     28  C22 UNL     1       1.968  -5.540 -19.402  0.00  0.00    +0.045 C 
ATOM     29  C23 UNL     1       3.130  -6.296 -20.030  0.00  0.00    +0.031 C 
ATOM     30  C24 UNL     1       3.288  -6.208 -21.511  0.00  0.00    -0.005 A 
ATOM     31  C25 UNL     1       3.594  -7.270 -22.356  0.00  0.00    +0.057 A 
ATOM     32  C34 UNL     1       2.408  -4.125 -19.074  0.00  0.00    +0.004 C 
ATOM     33  C35 UNL     1       0.751  -5.492 -20.306  0.00  0.00    +0.004 C 
ENDROOT
BRANCH  31  34
ATOM     34  C26 UNL     1       3.829  -8.679 -22.035  0.00  0.00    +0.031 A 
ATOM     35  C27 UNL     1       2.798  -9.602 -21.855  0.00  0.00    +0.087 A 
ATOM     36  N5  UNL     1       3.036 -10.906 -21.537  0.00  0.00    -0.246 NA
ATOM     37  C28 UNL     1       4.322 -11.296 -21.399  0.00  0.00    +0.099 A 
ATOM     38  C29 UNL     1       5.403 -10.454 -21.553  0.00  0.00    +0.021 A 
ATOM     39  C30 UNL     1       5.141  -9.129 -21.869  0.00  0.00    +0.004 A 
BRANCH  35  40
ATOM     40  C31 UNL     1       1.357  -9.174 -22.057  0.00  0.00    +0.155 C 
ATOM     41  C32 UNL     1       0.625  -9.157 -20.735  0.00  0.00    +0.039 C 
BRANCH  40  42
ATOM     42  O5  UNL     1       0.661 -10.043 -22.944  0.00  0.00    -0.348 OA
ATOM     43  C33 UNL     1       0.739  -9.496 -24.257  0.00  0.00    +0.175 C 
ENDBRANCH  40  42
ENDBRANCH  35  40
ENDBRANCH  31  34
BRANCH  15  44
ATOM     44  N6  UNL     1      -0.009   0.916 -18.058  0.00  0.00    -0.196 NA
ATOM     45  C36 UNL     1      -0.557   2.001 -18.699  0.00  0.00    +0.260 C 
ATOM     46  O6  UNL     1      -1.236   1.931 -19.722  0.00  0.00    -0.272 OA
BRANCH  45  47
ATOM     47  C37 UNL     1      -0.280   3.306 -17.950  0.00  0.00    +0.154 C 
BRANCH  47  48
ATOM     48  N7  UNL     1       0.567   4.242 -18.667  0.00  0.00    -0.269 N 
ATOM     49  C41 UNL     1       1.892   4.499 -18.144  0.00  0.00    +0.115 C 
ATOM     50  C42 UNL     1      -0.079   5.142 -19.499  0.00  0.00    +0.256 C 
ATOM     51  O7  UNL     1      -1.292   5.050 -19.708  0.00  0.00    -0.272 OA
BRANCH  50  52
ATOM     52  C43 UNL     1       0.790   6.208 -20.193  0.00  0.00    +0.205 C 
ATOM     53  C44 UNL     1      -0.014   7.012 -21.198  0.00  0.00    +0.063 C 
ATOM     54  C45 UNL     1      -0.422   6.184 -22.396  0.00  0.00    +0.098 C 
ATOM     55  N8  UNL     1       0.699   5.472 -22.961  0.00  0.00    -0.269 N 
ATOM     56  C46 UNL     1       1.541   4.719 -22.061  0.00  0.00    +0.098 C 
ATOM     57  C47 UNL     1       1.980   5.567 -20.883  0.00  0.00    +0.063 C 
ATOM     58  C48 UNL     1       0.581   5.098 -24.292  0.00  0.00    +0.292 C 
ATOM     59  O8  UNL     1      -0.296   5.511 -25.038  0.00  0.00    -0.260 OA
ATOM     60  F1  UNL     1       1.280   7.099 -19.273  0.00  0.00    -0.231 F 
BRANCH  58  61
ATOM     61  C49 UNL     1       1.568   4.174 -24.808  0.00  0.00    -0.006 C 
ATOM     62  C50 UNL     1       2.381   3.397 -25.237  0.00  0.00    -0.069 C 
BRANCH  62  63
ATOM     63  C51 UNL     1       3.364   2.440 -25.762  0.00  0.00    +0.100 C 
ATOM     64  C52 UNL     1       3.859   2.916 -27.119  0.00  0.00    +0.029 C 
ATOM     65  C53 UNL     1       2.643   1.118 -25.971  0.00  0.00    +0.029 C 
BRANCH  63  66
ATOM     66  N9  UNL     1       4.454   2.232 -24.801  0.00  0.00    -0.263 NA
ATOM     67  C54 UNL     1       5.031   3.497 -24.375  0.00  0.00    +0.090 C 
ATOM     68  C55 UNL     1       3.972   1.581 -23.594  0.00  0.00    +0.090 C 
ENDBRANCH  63  66
ENDBRANCH  62  63
ENDBRANCH  58  61
ENDBRANCH  50  52
ENDBRANCH  47  48
BRANCH  47  69
ATOM     69  C38 UNL     1      -1.502   3.967 -17.348  0.00  0.00    +0.027 C 
ATOM     70  C39 UNL     1      -1.162   4.711 -16.077  0.00  0.00    +0.002 C 
ATOM     71  C40 UNL     1      -2.660   3.028 -17.120  0.00  0.00    +0.002 C 
ENDBRANCH  47  69
ENDBRANCH  45  47
ENDBRANCH  15  44
BRANCH   1  73
ATOM     72  C1  UNL     1       5.325  -7.461 -25.242  0.00  0.00    +0.026 C 
ATOM     73  C2  UNL     1       3.871  -7.549 -24.838  0.00  0.00    +0.106 C 
ENDBRANCH   1  73
TORSDOF 12
ENDMDL
