MODEL 1
REMARK VINA RESULT:    -4.697      0.000      0.000
REMARK INTER + INTRA:          -8.777
REMARK INTER:                  -7.443
REMARK INTRA:                  -1.334
REMARK UNBOUND:                -1.334
REMARK  Name = /tmp/tmpyjxmnmqg/6N2J_candidate_0033.pdb
REMARK  10 active torsions:
REMARK  status: ('A' for Active; 'I' for Inactive)
REMARK    1  A    between atoms: O1_2  and  C2_3
REMARK    2  A    between atoms: C2_3  and  C3_4
REMARK    3  A    between atoms: C3_4  and  O2_5
REMARK    4  A    between atoms: O2_5  and  C4_6
REMARK    5  A    between atoms: C5_7  and  O3_25
REMARK    6  A    between atoms: N3_16  and  C12_17
REMARK    7  A    between atoms: C16_21  and  C18_23
REMARK    8  A    between atoms: O3_25  and  C20_26
REMARK    9  A    between atoms: C20_26  and  C21_27
REMARK   10  A    between atoms: C21_27  and  O4_28
REMARK                            x       y       z     vdW  Elec       q    Type
REMARK                         _______ _______ _______ _____ _____    ______ ____
ROOT
ATOM      1  C4  UNL     1       4.959   7.600  -6.781  0.00  0.00    +0.173 A 
ATOM      2  C5  UNL     1       5.307   6.264  -6.977  0.00  0.00    +0.174 A 
ATOM      3  C6  UNL     1       6.037   5.907  -8.115  0.00  0.00    +0.059 A 
ATOM      4  C7  UNL     1       6.437   6.836  -9.067  0.00  0.00    +0.089 A 
ATOM      5  C8  UNL     1       6.089   8.173  -8.868  0.00  0.00    +0.054 A 
ATOM      6  C9  UNL     1       5.351   8.543  -7.729  0.00  0.00    +0.044 A 
ATOM      7  C10 UNL     1       6.516   9.080  -9.846  0.00  0.00    +0.155 A 
ATOM      8  N1  UNL     1       7.221   8.675 -10.921  0.00  0.00    -0.207 NA
ATOM      9  C11 UNL     1       7.496   7.369 -11.010  0.00  0.00    +0.200 A 
ATOM     10  N2  UNL     1       7.136   6.430 -10.129  0.00  0.00    -0.224 NA
ATOM     11  N3  UNL     1       6.172  10.450  -9.667  0.00  0.00    -0.194 NA
ENDROOT
BRANCH  11  12
ATOM     12  C12 UNL     1       6.561  11.559 -10.447  0.00  0.00    +0.073 A 
ATOM     13  C13 UNL     1       5.629  12.094 -11.342  0.00  0.00    +0.017 A 
ATOM     14  C14 UNL     1       5.941  13.196 -12.135  0.00  0.00    +0.002 A 
ATOM     15  C15 UNL     1       7.198  13.785 -12.038  0.00  0.00    +0.008 A 
ATOM     16  C16 UNL     1       8.135  13.269 -11.150  0.00  0.00    +0.044 A 
ATOM     17  C17 UNL     1       7.816  12.164 -10.361  0.00  0.00    +0.025 A 
BRANCH  16  18
ATOM     18  C18 UNL     1       9.423  13.876 -11.038  0.00  0.00    -0.051 C 
ATOM     19  C19 UNL     1      10.505  14.385 -10.940  0.00  0.00    -0.009 C 
ENDBRANCH  16  18
ENDBRANCH  11  12
BRANCH   1  20
ATOM     20  O2  UNL     1       4.245   7.922  -5.658  0.00  0.00    -0.470 OA
BRANCH  20  21
ATOM     21  C3  UNL     1       4.836   9.008  -4.950  0.00  0.00    +0.237 C 
BRANCH  21  22
ATOM     22  C2  UNL     1       5.835   8.449  -3.961  0.00  0.00    +0.189 C 
BRANCH  22  24
ATOM     23  C1  UNL     1       6.302   6.440  -2.989  0.00  0.00    +0.174 C 
ATOM     24  O1  UNL     1       5.248   7.340  -3.295  0.00  0.00    -0.347 OA
ENDBRANCH  22  24
ENDBRANCH  21  22
ENDBRANCH  20  21
ENDBRANCH   1  20
BRANCH   2  25
ATOM     25  O3  UNL     1       4.917   5.356  -6.027  0.00  0.00    -0.470 OA
BRANCH  25  26
ATOM     26  C20 UNL     1       3.944   4.444  -6.530  0.00  0.00    +0.237 C 
BRANCH  26  27
ATOM     27  C21 UNL     1       2.657   4.661  -5.766  0.00  0.00    +0.189 C 
BRANCH  27  28
ATOM     28  O4  UNL     1       2.963   5.136  -4.462  0.00  0.00    -0.347 OA
ATOM     29  C22 UNL     1       1.977   4.603  -3.593  0.00  0.00    +0.174 C 
ENDBRANCH  27  28
ENDBRANCH  26  27
ENDBRANCH  25  26
ENDBRANCH   2  25
TORSDOF 10
ENDMDL
