MODEL 1
REMARK VINA RESULT:    -6.735      0.000      0.000
REMARK INTER + INTRA:         -10.787
REMARK INTER:                  -9.097
REMARK INTRA:                  -1.690
REMARK UNBOUND:                -1.690
REMARK  Name = /tmp/tmp7cgn88tj/6N2J_candidate_0028.pdb
REMARK  6 active torsions:
REMARK  status: ('A' for Active; 'I' for Inactive)
REMARK    1  A    between atoms: C7_7  and  O13_64
REMARK    2  A    between atoms: C18_19  and  O12_59
REMARK    3  A    between atoms: C25_27  and  C35_44
REMARK    4  A    between atoms: C35_44  and  C37_46
REMARK    5  A    between atoms: C37_46  and  C38_47
REMARK    6  A    between atoms: C42_51  and  O9_53
REMARK                            x       y       z     vdW  Elec       q    Type
REMARK                         _______ _______ _______ _____ _____    ______ ____
ROOT
ATOM      1  C1  UNL     1      13.200 -10.808 -23.873  0.00  0.00    +0.006 C 
ATOM      2  C2  UNL     1      14.486 -11.353 -24.453  0.00  0.00    +0.062 C 
ATOM      3  C3  UNL     1      15.193 -10.242 -25.198  0.00  0.00    +0.008 C 
ATOM      4  C4  UNL     1      16.395 -10.766 -25.946  0.00  0.00    +0.030 C 
ATOM      5  C5  UNL     1      16.014 -11.977 -26.775  0.00  0.00    +0.121 C 
ATOM      6  C6  UNL     1      17.224 -12.498 -27.513  0.00  0.00    +0.063 C 
ATOM      7  C7  UNL     1      17.546 -11.583 -28.678  0.00  0.00    +0.136 C 
ATOM      8  C8  UNL     1      18.942 -11.686 -29.204  0.00  0.00    -0.017 C 
ATOM      9  C9  UNL     1      19.844 -12.559 -28.734  0.00  0.00    -0.006 C 
ATOM     10  C10 UNL     1      21.210 -12.665 -29.159  0.00  0.00    -0.001 C 
ATOM     11  C11 UNL     1      22.166 -11.876 -28.664  0.00  0.00    -0.000 C 
ATOM     12  C12 UNL     1      23.527 -11.893 -29.106  0.00  0.00    -0.005 C 
ATOM     13  C13 UNL     1      24.329 -12.956 -29.022  0.00  0.00    -0.026 C 
ATOM     14  C14 UNL     1      25.750 -13.036 -29.453  0.00  0.00    +0.022 C 
ATOM     15  C15 UNL     1      26.696 -12.982 -28.275  0.00  0.00    +0.012 C 
ATOM     16  C16 UNL     1      26.615 -14.231 -27.427  0.00  0.00    +0.061 C 
ATOM     17  C17 UNL     1      25.941 -13.916 -26.113  0.00  0.00    +0.180 C 
ATOM     18  O1  UNL     1      26.291 -12.968 -25.409  0.00  0.00    -0.293 OA
ATOM     19  C18 UNL     1      24.828 -14.875 -25.729  0.00  0.00    +0.206 C 
ATOM     20  C19 UNL     1      25.194 -15.554 -24.410  0.00  0.00    +0.204 C 
ATOM     21  C20 UNL     1      24.241 -16.650 -24.034  0.00  0.00    -0.015 C 
ATOM     22  C21 UNL     1      23.430 -16.517 -22.976  0.00  0.00    -0.025 C 
ATOM     23  C22 UNL     1      22.463 -17.545 -22.511  0.00  0.00    +0.079 C 
ATOM     24  C23 UNL     1      21.071 -17.235 -23.030  0.00  0.00    +0.158 C 
ATOM     25  O2  UNL     1      20.793 -17.363 -24.225  0.00  0.00    -0.296 OA
ATOM     26  C24 UNL     1      20.043 -16.765 -22.038  0.00  0.00    +0.108 C 
ATOM     27  C25 UNL     1      18.781 -17.593 -22.179  0.00  0.00    +0.176 C 
ATOM     28  O3  UNL     1      17.695 -16.765 -21.734  0.00  0.00    -0.451 OA
ATOM     29  C26 UNL     1      16.637 -16.781 -22.594  0.00  0.00    +0.335 C 
ATOM     30  O4  UNL     1      16.616 -17.354 -23.676  0.00  0.00    -0.248 OA
ATOM     31  C27 UNL     1      15.445 -16.086 -21.945  0.00  0.00    +0.175 C 
ATOM     32  C28 UNL     1      14.779 -17.056 -20.982  0.00  0.00    +0.031 C 
ATOM     33  C29 UNL     1      13.936 -18.095 -21.696  0.00  0.00    +0.004 C 
ATOM     34  C30 UNL     1      12.940 -17.434 -22.624  0.00  0.00    +0.022 C 
ATOM     35  C31 UNL     1      13.635 -16.503 -23.597  0.00  0.00    +0.094 C 
ATOM     36  N1  UNL     1      14.485 -15.556 -22.899  0.00  0.00    -0.265 N 
ATOM     37  C32 UNL     1      14.695 -14.269 -23.374  0.00  0.00    +0.289 C 
ATOM     38  O5  UNL     1      15.572 -13.533 -22.931  0.00  0.00    -0.267 OA
ATOM     39  C33 UNL     1      13.738 -13.743 -24.451  0.00  0.00    +0.279 C 
ATOM     40  O6  UNL     1      12.606 -14.214 -24.540  0.00  0.00    -0.281 OA
ATOM     41  C34 UNL     1      14.276 -12.599 -25.315  0.00  0.00    +0.279 C 
ATOM     42  O7  UNL     1      15.504 -13.002 -25.928  0.00  0.00    -0.329 OA
ATOM     43  O8  UNL     1      13.301 -12.308 -26.314  0.00  0.00    -0.187 OA
ATOM     44  C45 UNL     1      22.529 -17.665 -21.010  0.00  0.00    +0.012 C 
ATOM     45  C46 UNL     1      24.224 -17.870 -24.892  0.00  0.00    +0.029 C 
ATOM     46  O11 UNL     1      26.489 -16.142 -24.511  0.00  0.00    -0.216 OA
ATOM     47  C48 UNL     1      28.006 -14.747 -27.145  0.00  0.00    +0.008 C 
ATOM     48  C49 UNL     1      26.139 -11.975 -30.456  0.00  0.00    +0.005 C 
ATOM     49  C50 UNL     1      19.287 -10.703 -30.275  0.00  0.00    +0.029 C 
ENDROOT
BRANCH  27  50
ATOM     50  C35 UNL     1      18.812 -18.838 -21.299  0.00  0.00    +0.041 C 
ATOM     51  C36 UNL     1      18.798 -20.139 -22.067  0.00  0.00    +0.004 C 
BRANCH  50  52
ATOM     52  C37 UNL     1      17.767 -18.814 -20.201  0.00  0.00    +0.004 C 
BRANCH  52  53
ATOM     53  C38 UNL     1      18.281 -18.762 -18.778  0.00  0.00    +0.003 C 
ATOM     54  C39 UNL     1      17.854 -17.504 -18.050  0.00  0.00    +0.003 C 
ATOM     55  C40 UNL     1      18.528 -17.299 -16.707  0.00  0.00    +0.035 C 
ATOM     56  C41 UNL     1      19.470 -18.412 -16.294  0.00  0.00    +0.179 C 
ATOM     57  C42 UNL     1      20.413 -18.804 -17.421  0.00  0.00    +0.146 C 
ATOM     58  C43 UNL     1      19.787 -18.890 -18.800  0.00  0.00    +0.032 C 
ATOM     59  O10 UNL     1      18.680 -19.543 -15.942  0.00  0.00    -0.221 OA
BRANCH  57  60
ATOM     60  O9  UNL     1      21.615 -18.047 -17.449  0.00  0.00    -0.351 OA
ATOM     61  C44 UNL     1      22.258 -18.032 -16.180  0.00  0.00    +0.174 C 
ENDBRANCH  57  60
ENDBRANCH  52  53
ENDBRANCH  50  52
ENDBRANCH  27  50
BRANCH  19  62
ATOM     62  O12 UNL     1      23.601 -14.162 -25.635  0.00  0.00    -0.343 OA
ATOM     63  C47 UNL     1      22.641 -14.821 -26.451  0.00  0.00    +0.175 C 
ENDBRANCH  19  62
BRANCH   7  64
ATOM     64  O13 UNL     1      16.619 -11.827 -29.728  0.00  0.00    -0.349 OA
ATOM     65  C51 UNL     1      16.576 -13.228 -29.955  0.00  0.00    +0.174 C 
ENDBRANCH   7  64
TORSDOF 6
ENDMDL
