MODEL 1
REMARK VINA RESULT:    -6.763      0.000      0.000
REMARK INTER + INTRA:          -8.000
REMARK INTER:                  -7.553
REMARK INTRA:                  -0.446
REMARK UNBOUND:                -0.446
REMARK  Name = /tmp/tmpcvmyj20b/6N2J_candidate_0062.pdb
REMARK  2 active torsions:
REMARK  status: ('A' for Active; 'I' for Inactive)
REMARK    1  A    between atoms: C6_8  and  C7_10
REMARK    2  A    between atoms: C16_23  and  C17_24
REMARK                            x       y       z     vdW  Elec       q    Type
REMARK                         _______ _______ _______ _____ _____    ______ ____
ROOT
ATOM      1  C1  UNL     1      13.511 -16.003 -23.278  0.00  0.00    +0.023 C 
ATOM      2  C2  UNL     1      14.801 -15.835 -22.511  0.00  0.00    +0.095 C 
ATOM      3  C3  UNL     1      15.536 -14.574 -22.950  0.00  0.00    +0.112 C 
ATOM      4  N1  UNL     1      16.293 -14.774 -24.185  0.00  0.00    -0.291 N 
ATOM      5  C4  UNL     1      17.201 -15.923 -24.148  0.00  0.00    +0.094 C 
ATOM      6  C5  UNL     1      16.483 -17.201 -23.730  0.00  0.00    +0.113 C 
ATOM      7  N2  UNL     1      15.622 -17.030 -22.565  0.00  0.00    -0.274 N 
ATOM      8  C6  UNL     1      15.337 -18.051 -21.683  0.00  0.00    +0.249 C 
ATOM      9  O1  UNL     1      14.509 -17.946 -20.784  0.00  0.00    -0.270 OA
ATOM     10  C9  UNL     1      18.380 -15.641 -23.243  0.00  0.00    +0.023 C 
ATOM     11  C10 UNL     1      16.483 -13.805 -25.164  0.00  0.00    +0.139 A 
ATOM     12  N3  UNL     1      17.412 -14.017 -26.049  0.00  0.00    -0.177 NA
ATOM     13  C11 UNL     1      17.698 -13.136 -27.060  0.00  0.00    +0.356 A 
ATOM     14  O2  UNL     1      18.535 -13.444 -27.909  0.00  0.00    -0.244 OA
ATOM     15  N4  UNL     1      17.027 -11.919 -27.101  0.00  0.00    -0.239 N 
ATOM     16  C12 UNL     1      17.277 -10.987 -28.155  0.00  0.00    +0.117 A 
ATOM     17  C13 UNL     1      16.267 -10.596 -29.058  0.00  0.00    +0.158 A 
ATOM     18  C14 UNL     1      16.558  -9.691 -30.075  0.00  0.00    +0.059 A 
ATOM     19  C15 UNL     1      17.842  -9.186 -30.157  0.00  0.00    +0.102 A 
ATOM     20  N5  UNL     1      18.837  -9.520 -29.313  0.00  0.00    -0.246 NA
ATOM     21  C16 UNL     1      18.555 -10.427 -28.336  0.00  0.00    +0.078 A 
ATOM     22  O3  UNL     1      15.022 -11.174 -28.940  0.00  0.00    -0.470 OA
ATOM     23  C20 UNL     1      14.032 -10.526 -29.737  0.00  0.00    +0.253 C 
ATOM     24  C21 UNL     1      13.383  -9.359 -29.005  0.00  0.00    +0.253 C 
ATOM     25  O4  UNL     1      12.807  -9.786 -27.770  0.00  0.00    -0.469 OA
ATOM     26  C22 UNL     1      12.912  -8.738 -26.885  0.00  0.00    +0.170 A 
ATOM     27  C23 UNL     1      12.278  -7.514 -27.131  0.00  0.00    +0.174 A 
ATOM     28  C24 UNL     1      12.346  -6.476 -26.209  0.00  0.00    +0.035 A 
ATOM     29  C25 UNL     1      13.044  -6.660 -25.021  0.00  0.00    +0.032 A 
ATOM     30  C26 UNL     1      13.666  -7.882 -24.767  0.00  0.00    +0.145 A 
ATOM     31  C27 UNL     1      13.611  -8.943 -25.681  0.00  0.00    +0.082 A 
ATOM     32  C28 UNL     1      14.301 -10.204 -25.412  0.00  0.00    +0.099 A 
ATOM     33  C29 UNL     1      13.893 -11.138 -24.468  0.00  0.00    +0.076 A 
ATOM     34  C30 UNL     1      14.611 -12.321 -24.370  0.00  0.00    +0.019 A 
ATOM     35  C31 UNL     1      15.679 -12.570 -25.224  0.00  0.00    +0.067 A 
ATOM     36  C32 UNL     1      16.006 -11.625 -26.177  0.00  0.00    +0.154 A 
ATOM     37  N6  UNL     1      15.368 -10.425 -26.226  0.00  0.00    -0.227 NA
ATOM     38 CL1  UNL     1      12.533 -10.933 -23.440  0.00  0.00    -0.081 Cl
ATOM     39  F1  UNL     1      14.346  -8.024 -23.618  0.00  0.00    -0.204 F 
ATOM     40  F2  UNL     1      11.583  -7.329 -28.264  0.00  0.00    -0.201 F 
ENDROOT
BRANCH  21  41
ATOM     41  C17 UNL     1      19.670 -10.745 -27.384  0.00  0.00    +0.042 C 
ATOM     42  C18 UNL     1      21.017 -10.644 -28.059  0.00  0.00    +0.006 C 
ATOM     43  C19 UNL     1      19.619  -9.825 -26.187  0.00  0.00    +0.006 C 
ENDBRANCH  21  41
BRANCH   8  44
ATOM     44  C7  UNL     1      16.130 -19.282 -21.900  0.00  0.00    +0.058 C 
ATOM     45  C8  UNL     1      16.962 -19.658 -20.924  0.00  0.00    +0.005 C 
ENDBRANCH   8  44
TORSDOF 2
ENDMDL
