MODEL 1
REMARK VINA RESULT:    -5.364      0.000      0.000
REMARK INTER + INTRA:          -7.853
REMARK INTER:                  -7.246
REMARK INTRA:                  -0.607
REMARK UNBOUND:                -0.607
REMARK  Name = /tmp/tmppf438dja/6N2J_candidate_0015.pdb
REMARK  6 active torsions:
REMARK  status: ('A' for Active; 'I' for Inactive)
REMARK    1  A    between atoms: C2_2  and  C5_5
REMARK    2  A    between atoms: C7_7  and  N1_13
REMARK    3  A    between atoms: N1_13  and  C11_14
REMARK    4  A    between atoms: C11_14  and  C12_15
REMARK    5  A    between atoms: N3_20  and  C17_23
REMARK    6  A    between atoms: C20_27  and  C21_29
REMARK                            x       y       z     vdW  Elec       q    Type
REMARK                         _______ _______ _______ _____ _____    ______ ____
ROOT
ATOM      1  C12 UNL     1      15.328 -16.047 -24.040  0.00  0.00    +0.248 C 
ATOM      2  O2  UNL     1      14.252 -16.635 -24.156  0.00  0.00    -0.273 OA
ATOM      3  N2  UNL     1      15.747 -15.076 -24.933  0.00  0.00    -0.275 N 
ATOM      4  C13 UNL     1      16.739 -14.091 -24.560  0.00  0.00    +0.111 C 
ATOM      5  C14 UNL     1      16.066 -12.803 -24.078  0.00  0.00    +0.094 C 
ATOM      6  N3  UNL     1      15.027 -12.263 -24.955  0.00  0.00    -0.268 NA
ATOM      7  C15 UNL     1      14.138 -13.300 -25.488  0.00  0.00    +0.094 C 
ATOM      8  C16 UNL     1      14.789 -14.619 -25.913  0.00  0.00    +0.111 C 
ENDROOT
BRANCH   6   9
ATOM      9  C17 UNL     1      15.655 -11.408 -25.972  0.00  0.00    +0.098 C 
ATOM     10  C18 UNL     1      16.090 -10.089 -25.334  0.00  0.00    +0.111 C 
ATOM     11  N4  UNL     1      15.181  -9.413 -26.252  0.00  0.00    -0.273 N 
ATOM     12  C19 UNL     1      14.650 -10.642 -26.827  0.00  0.00    +0.111 C 
ATOM     13  C20 UNL     1      14.435  -8.288 -26.009  0.00  0.00    +0.249 C 
ATOM     14  O3  UNL     1      13.349  -8.069 -26.533  0.00  0.00    -0.270 OA
BRANCH  13  15
ATOM     15  C21 UNL     1      15.082  -7.358 -25.055  0.00  0.00    +0.058 C 
ATOM     16  C22 UNL     1      14.321  -6.417 -24.495  0.00  0.00    +0.005 C 
ENDBRANCH  13  15
ENDBRANCH   6   9
BRANCH   1  17
ATOM     17  C11 UNL     1      16.302 -16.400 -22.928  0.00  0.00    +0.197 C 
BRANCH  17  18
ATOM     18  N1  UNL     1      15.802 -15.925 -21.640  0.00  0.00    -0.225 NA
BRANCH  18  21
ATOM     19  C5  UNL     1      17.193 -17.912 -18.761  0.00  0.00    -0.011 A 
ATOM     20  C6  UNL     1      17.062 -16.988 -19.813  0.00  0.00    +0.016 A 
ATOM     21  C7  UNL     1      15.904 -16.849 -20.587  0.00  0.00    +0.104 A 
ATOM     22  C8  UNL     1      14.828 -17.678 -20.273  0.00  0.00    +0.211 A 
ATOM     23  C9  UNL     1      14.897 -18.598 -19.234  0.00  0.00    +0.054 A 
ATOM     24  C10 UNL     1      16.069 -18.711 -18.489  0.00  0.00    +0.057 A 
ATOM     25 CL1  UNL     1      16.069 -19.861 -17.202  0.00  0.00    -0.082 Cl
ATOM     26  O1  UNL     1      13.664 -17.604 -20.984  0.00  0.00    -0.285 OA
BRANCH  19  28
ATOM     27  C1  UNL     1      18.496 -17.278 -16.675  0.00  0.00    +0.004 C 
ATOM     28  C2  UNL     1      18.487 -17.985 -17.989  0.00  0.00    +0.020 C 
ATOM     29  C3  UNL     1      19.327 -19.233 -18.096  0.00  0.00    +0.004 C 
ATOM     30  C4  UNL     1      19.789 -17.973 -18.751  0.00  0.00    +0.004 C 
ENDBRANCH  19  28
ENDBRANCH  18  21
ENDBRANCH  17  18
ENDBRANCH   1  17
TORSDOF 6
ENDMDL
