MODEL 1
REMARK VINA RESULT:    -6.374      0.000      0.000
REMARK INTER + INTRA:          -9.521
REMARK INTER:                  -7.865
REMARK INTRA:                  -1.656
REMARK UNBOUND:                -1.656
REMARK  Name = /tmp/tmp6t18svb0/6N2J_candidate_0099.pdb
REMARK  4 active torsions:
REMARK  status: ('A' for Active; 'I' for Inactive)
REMARK    1  A    between atoms: N4_12  and  C19_28
REMARK    2  A    between atoms: C9_15  and  C13_20
REMARK    3  A    between atoms: C23_33  and  C24_34
REMARK    4  A    between atoms: C28_38  and  C29_40
REMARK                            x       y       z     vdW  Elec       q    Type
REMARK                         _______ _______ _______ _____ _____    ______ ____
ROOT
ATOM      1  C1  UNL     1      21.460 -10.144 -29.124  0.00  0.00    +0.023 C 
ATOM      2  C2  UNL     1      20.521  -9.390 -28.214  0.00  0.00    +0.094 C 
ATOM      3  C3  UNL     1      21.106  -8.039 -27.803  0.00  0.00    +0.113 C 
ATOM      4  N1  UNL     1      20.961  -7.027 -28.837  0.00  0.00    -0.273 N 
ATOM      5  C4  UNL     1      19.660  -6.920 -29.465  0.00  0.00    +0.115 C 
ATOM      6  C5  UNL     1      19.156  -8.282 -29.931  0.00  0.00    +0.114 C 
ATOM      7  N2  UNL     1      19.196  -9.262 -28.840  0.00  0.00    -0.291 N 
ATOM      8  C6  UNL     1      18.081  -9.540 -28.058  0.00  0.00    +0.139 A 
ATOM      9  N3  UNL     1      18.256  -9.750 -26.788  0.00  0.00    -0.177 NA
ATOM     10  C7  UNL     1      17.222 -10.036 -25.932  0.00  0.00    +0.356 A 
ATOM     11  O1  UNL     1      17.461 -10.214 -24.738  0.00  0.00    -0.244 OA
ATOM     12  N4  UNL     1      15.932 -10.134 -26.444  0.00  0.00    -0.242 N 
ATOM     13  C8  UNL     1      15.669  -9.916 -27.813  0.00  0.00    +0.154 A 
ATOM     14  N5  UNL     1      14.393  -9.973 -28.285  0.00  0.00    -0.225 NA
ATOM     15  C9  UNL     1      14.167  -9.765 -29.609  0.00  0.00    +0.115 A 
ATOM     16  C10 UNL     1      15.206  -9.504 -30.490  0.00  0.00    +0.158 A 
ATOM     17  C11 UNL     1      16.499  -9.436 -30.006  0.00  0.00    +0.037 A 
ATOM     18  C12 UNL     1      16.732  -9.621 -28.648  0.00  0.00    +0.069 A 
ATOM     19  F1  UNL     1      14.984  -9.331 -31.800  0.00  0.00    -0.203 F 
ATOM     20  C28 UNL     1      21.974  -6.218 -29.287  0.00  0.00    +0.249 C 
ATOM     21  O3  UNL     1      21.828  -5.415 -30.204  0.00  0.00    -0.270 OA
ENDROOT
BRANCH  15  22
ATOM     22  C13 UNL     1      12.768  -9.822 -30.031  0.00  0.00    +0.086 A 
ATOM     23  C14 UNL     1      12.224 -10.935 -30.685  0.00  0.00    +0.199 A 
ATOM     24  C15 UNL     1      10.887 -10.983 -31.076  0.00  0.00    +0.042 A 
ATOM     25  C16 UNL     1      10.053  -9.901 -30.812  0.00  0.00    +0.006 A 
ATOM     26  C17 UNL     1      10.560  -8.780 -30.164  0.00  0.00    +0.030 A 
ATOM     27  C18 UNL     1      11.900  -8.750 -29.783  0.00  0.00    +0.145 A 
ATOM     28  F2  UNL     1      12.354  -7.659 -29.144  0.00  0.00    -0.204 F 
ATOM     29  O2  UNL     1      13.000 -12.019 -30.986  0.00  0.00    -0.286 OA
ENDBRANCH  15  22
BRANCH  12  30
ATOM     30  C19 UNL     1      14.827 -10.401 -25.585  0.00  0.00    +0.079 A 
ATOM     31  C20 UNL     1      14.481 -11.718 -25.237  0.00  0.00    -0.003 A 
ATOM     32  C21 UNL     1      13.387 -11.947 -24.407  0.00  0.00    +0.018 A 
ATOM     33  C22 UNL     1      12.676 -10.855 -23.939  0.00  0.00    +0.098 A 
ATOM     34  N6  UNL     1      12.980  -9.574 -24.237  0.00  0.00    -0.247 NA
ATOM     35  C23 UNL     1      14.055  -9.359 -25.043  0.00  0.00    +0.074 A 
ATOM     36  C27 UNL     1      15.275 -12.901 -25.674  0.00  0.00    +0.033 C 
BRANCH  35  37
ATOM     37  C24 UNL     1      14.343  -7.931 -25.403  0.00  0.00    +0.042 C 
ATOM     38  C25 UNL     1      15.134  -7.235 -24.323  0.00  0.00    +0.006 C 
ATOM     39  C26 UNL     1      13.061  -7.185 -25.675  0.00  0.00    +0.006 C 
ENDBRANCH  35  37
ENDBRANCH  12  30
BRANCH  20  40
ATOM     40  C29 UNL     1      23.264  -6.411 -28.584  0.00  0.00    +0.058 C 
ATOM     41  C30 UNL     1      24.374  -6.022 -29.216  0.00  0.00    +0.005 C 
ENDBRANCH  20  40
TORSDOF 4
ENDMDL
