MODEL 1
REMARK VINA RESULT:    -6.828      0.000      0.000
REMARK INTER + INTRA:         -12.033
REMARK INTER:                  -9.223
REMARK INTRA:                  -2.810
REMARK UNBOUND:                -2.810
REMARK  Name = /tmp/tmp30jdgmsp/6N2J_candidate_0011.pdb
REMARK  6 active torsions:
REMARK  status: ('A' for Active; 'I' for Inactive)
REMARK    1  A    between atoms: C3_3  and  C8_10
REMARK    2  A    between atoms: C8_10  and  O1_11
REMARK    3  A    between atoms: O1_11  and  C9_12
REMARK    4  A    between atoms: C12_16  and  C24_34
REMARK    5  A    between atoms: C13_17  and  C23_30
REMARK    6  A    between atoms: C26_36  and  C32_45
REMARK                            x       y       z     vdW  Elec       q    Type
REMARK                         _______ _______ _______ _____ _____    ______ ____
ROOT
ATOM      1  C9  UNL     1      13.968 -12.024 -23.872  0.00  0.00    +0.321 A 
ATOM      2  N2  UNL     1      14.285 -12.734 -22.782  0.00  0.00    -0.192 NA
ATOM      3  C10 UNL     1      14.899 -13.907 -22.977  0.00  0.00    +0.116 A 
ATOM      4  C11 UNL     1      15.234 -14.716 -21.889  0.00  0.00    +0.158 A 
ATOM      5  C12 UNL     1      15.869 -15.971 -22.014  0.00  0.00    +0.033 A 
ATOM      6  C13 UNL     1      16.182 -16.427 -23.303  0.00  0.00    +0.074 A 
ATOM      7  C14 UNL     1      15.855 -15.619 -24.395  0.00  0.00    +0.008 A 
ATOM      8  C15 UNL     1      15.230 -14.366 -24.252  0.00  0.00    +0.052 A 
ATOM      9  C16 UNL     1      14.887 -13.530 -25.330  0.00  0.00    +0.138 A 
ATOM     10  N3  UNL     1      14.250 -12.363 -25.131  0.00  0.00    -0.179 NA
ATOM     11  N4  UNL     1      15.178 -13.919 -26.658  0.00  0.00    -0.290 N 
ATOM     12  C17 UNL     1      16.636 -13.993 -26.852  0.00  0.00    +0.109 C 
ATOM     13  C18 UNL     1      17.022 -14.112 -28.335  0.00  0.00    +0.093 C 
ATOM     14  C19 UNL     1      16.273 -15.262 -28.994  0.00  0.00    +0.021 C 
ATOM     15  C20 UNL     1      14.964 -14.648 -29.472  0.00  0.00    +0.021 C 
ATOM     16  C21 UNL     1      15.045 -13.189 -29.046  0.00  0.00    +0.093 C 
ATOM     17  C22 UNL     1      14.514 -13.015 -27.615  0.00  0.00    +0.109 C 
ATOM     18  N5  UNL     1      16.498 -12.940 -29.056  0.00  0.00    -0.217 NA
ATOM     19  F6  UNL     1      14.930 -14.283 -20.651  0.00  0.00    -0.203 F 
ENDROOT
BRANCH   5  20
ATOM     20  C24 UNL     1      16.189 -16.736 -20.804  0.00  0.00    +0.004 A 
ATOM     21  C25 UNL     1      15.249 -17.653 -20.227  0.00  0.00    +0.020 A 
ATOM     22  C26 UNL     1      13.915 -18.072 -20.614  0.00  0.00    +0.092 A 
ATOM     23  C27 UNL     1      13.354 -18.994 -19.756  0.00  0.00    +0.128 A 
ATOM     24  S1  UNL     1      14.411 -19.376 -18.478  0.00  0.00    -0.066 S 
ATOM     25  C28 UNL     1      15.636 -18.315 -19.052  0.00  0.00    +0.059 A 
ATOM     26  C29 UNL     1      16.893 -18.094 -18.460  0.00  0.00    +0.146 A 
ATOM     27  C30 UNL     1      17.787 -17.201 -19.031  0.00  0.00    +0.030 A 
ATOM     28  C31 UNL     1      17.434 -16.530 -20.186  0.00  0.00    +0.002 A 
ATOM     29  F5  UNL     1      17.245 -18.738 -17.338  0.00  0.00    -0.204 F 
ATOM     30  N6  UNL     1      12.130 -19.574 -19.845  0.00  0.00    -0.120 NA
BRANCH  22  31
ATOM     31  C32 UNL     1      13.211 -17.610 -21.775  0.00  0.00    +0.102 C 
ATOM     32  N7  UNL     1      12.669 -17.271 -22.742  0.00  0.00    -0.191 NA
ENDBRANCH  22  31
ENDBRANCH   5  20
BRANCH   6  33
ATOM     33  C23 UNL     1      16.849 -17.749 -23.567  0.00  0.00    +0.419 C 
ATOM     34  F2  UNL     1      17.025 -17.986 -24.895  0.00  0.00    -0.166 F 
ATOM     35  F3  UNL     1      18.085 -17.830 -23.001  0.00  0.00    -0.166 F 
ATOM     36  F4  UNL     1      16.150 -18.817 -23.092  0.00  0.00    -0.166 F 
ENDBRANCH   6  33
BRANCH   1  37
ATOM     37  O1  UNL     1      13.375 -10.790 -23.720  0.00  0.00    -0.445 OA
BRANCH  37  38
ATOM     38  C8  UNL     1      12.999 -10.309 -25.005  0.00  0.00    +0.223 C 
BRANCH  38  41
ATOM     39  C1  UNL     1      13.264  -6.827 -24.055  0.00  0.00    +0.019 C 
ATOM     40  C2  UNL     1      12.513  -7.862 -24.865  0.00  0.00    +0.020 C 
ATOM     41  C3  UNL     1      13.536  -8.906 -25.261  0.00  0.00    +0.089 C 
ATOM     42  C4  UNL     1      13.976  -8.713 -26.698  0.00  0.00    +0.055 C 
ATOM     43  C5  UNL     1      15.396  -9.225 -26.691  0.00  0.00    +0.178 C 
ATOM     44  C6  UNL     1      15.896  -8.910 -25.290  0.00  0.00    +0.108 C 
ATOM     45  N1  UNL     1      14.728  -8.646 -24.436  0.00  0.00    -0.269 NA
ATOM     46  C7  UNL     1      14.724  -7.211 -24.155  0.00  0.00    +0.072 C 
ATOM     47  F1  UNL     1      16.117  -8.518 -27.602  0.00  0.00    -0.236 F 
ENDBRANCH  38  41
ENDBRANCH  37  38
ENDBRANCH   1  37
TORSDOF 6
ENDMDL
