MODEL 1
REMARK VINA RESULT:    -6.706      0.000      0.000
REMARK INTER + INTRA:         -12.059
REMARK INTER:                  -9.450
REMARK INTRA:                  -2.608
REMARK UNBOUND:                -2.608
REMARK  Name = /tmp/tmpw6ggvxju/6N2J_candidate_0010.pdb
REMARK  7 active torsions:
REMARK  status: ('A' for Active; 'I' for Inactive)
REMARK    1  A    between atoms: C6_8  and  C7_10
REMARK    2  A    between atoms: C11_15  and  O2_41
REMARK    3  A    between atoms: C14_19  and  C19_27
REMARK    4  A    between atoms: C15_20  and  C18_23
REMARK    5  A    between atoms: C21_29  and  C27_38
REMARK    6  A    between atoms: O2_41  and  C28_42
REMARK    7  A    between atoms: C28_42  and  C29_43
REMARK                            x       y       z     vdW  Elec       q    Type
REMARK                         _______ _______ _______ _____ _____    ______ ____
ROOT
ATOM      1  C1  UNL     1      12.618 -16.732 -28.515  0.00  0.00    +0.023 C 
ATOM      2  C2  UNL     1      13.834 -15.851 -28.331  0.00  0.00    +0.095 C 
ATOM      3  C3  UNL     1      13.799 -15.290 -26.913  0.00  0.00    +0.112 C 
ATOM      4  N1  UNL     1      14.785 -14.220 -26.724  0.00  0.00    -0.291 N 
ATOM      5  C4  UNL     1      14.673 -13.118 -27.688  0.00  0.00    +0.094 C 
ATOM      6  C5  UNL     1      13.806 -13.433 -28.905  0.00  0.00    +0.113 C 
ATOM      7  N2  UNL     1      13.895 -14.815 -29.352  0.00  0.00    -0.274 N 
ATOM      8  C6  UNL     1      14.120 -15.170 -30.663  0.00  0.00    +0.249 C 
ATOM      9  O1  UNL     1      14.254 -16.330 -31.039  0.00  0.00    -0.270 OA
ATOM     10  C9  UNL     1      16.060 -12.724 -28.144  0.00  0.00    +0.023 C 
ATOM     11  C10 UNL     1      14.626 -13.730 -25.400  0.00  0.00    +0.138 A 
ATOM     12  N3  UNL     1      14.090 -12.510 -25.224  0.00  0.00    -0.179 NA
ATOM     13  C11 UNL     1      13.954 -12.084 -23.960  0.00  0.00    +0.321 A 
ATOM     14  N4  UNL     1      14.280 -12.773 -22.864  0.00  0.00    -0.192 NA
ATOM     15  C12 UNL     1      14.825 -13.984 -23.040  0.00  0.00    +0.116 A 
ATOM     16  C13 UNL     1      15.204 -14.764 -21.946  0.00  0.00    +0.158 A 
ATOM     17  C14 UNL     1      15.788 -16.045 -22.062  0.00  0.00    +0.033 A 
ATOM     18  C15 UNL     1      16.021 -16.554 -23.349  0.00  0.00    +0.074 A 
ATOM     19  C16 UNL     1      15.640 -15.782 -24.447  0.00  0.00    +0.008 A 
ATOM     20  C17 UNL     1      15.033 -14.519 -24.311  0.00  0.00    +0.052 A 
ATOM     21  F5  UNL     1      14.991 -14.282 -20.707  0.00  0.00    -0.203 F 
ENDROOT
BRANCH  17  22
ATOM     22  C19 UNL     1      16.122 -16.791 -20.845  0.00  0.00    +0.004 A 
ATOM     23  C20 UNL     1      15.172 -17.675 -20.233  0.00  0.00    +0.020 A 
ATOM     24  C21 UNL     1      13.827 -18.083 -20.598  0.00  0.00    +0.092 A 
ATOM     25  C22 UNL     1      13.257 -18.962 -19.703  0.00  0.00    +0.128 A 
ATOM     26  S1  UNL     1      14.319 -19.325 -18.424  0.00  0.00    -0.066 S 
ATOM     27  C23 UNL     1      15.560 -18.312 -19.045  0.00  0.00    +0.059 A 
ATOM     28  C24 UNL     1      16.830 -18.101 -18.476  0.00  0.00    +0.146 A 
ATOM     29  C25 UNL     1      17.736 -17.246 -19.085  0.00  0.00    +0.030 A 
ATOM     30  C26 UNL     1      17.380 -16.597 -20.251  0.00  0.00    +0.002 A 
ATOM     31  F4  UNL     1      17.182 -18.722 -17.341  0.00  0.00    -0.204 F 
ATOM     32  N5  UNL     1      12.020 -19.518 -19.763  0.00  0.00    -0.120 NA
BRANCH  24  33
ATOM     33  C27 UNL     1      13.126 -17.652 -21.772  0.00  0.00    +0.102 C 
ATOM     34  N6  UNL     1      12.524 -17.275 -22.691  0.00  0.00    -0.191 NA
ENDBRANCH  24  33
ENDBRANCH  17  22
BRANCH  18  35
ATOM     35  C18 UNL     1      16.643 -17.900 -23.600  0.00  0.00    +0.419 C 
ATOM     36  F1  UNL     1      17.870 -18.052 -23.031  0.00  0.00    -0.166 F 
ATOM     37  F2  UNL     1      15.881 -18.922 -23.124  0.00  0.00    -0.166 F 
ATOM     38  F3  UNL     1      16.820 -18.147 -24.928  0.00  0.00    -0.166 F 
ENDBRANCH  18  35
BRANCH   8  39
ATOM     39  C7  UNL     1      14.190 -14.020 -31.598  0.00  0.00    +0.058 C 
ATOM     40  C8  UNL     1      15.380 -13.700 -32.111  0.00  0.00    +0.005 C 
ENDBRANCH   8  39
BRANCH  13  41
ATOM     41  O2  UNL     1      13.382 -10.857 -23.712  0.00  0.00    -0.445 OA
BRANCH  41  42
ATOM     42  C28 UNL     1      12.723 -10.410 -24.888  0.00  0.00    +0.223 C 
BRANCH  42  43
ATOM     43  C29 UNL     1      13.228  -9.050 -25.352  0.00  0.00    +0.089 C 
ATOM     44  C30 UNL     1      13.278  -8.937 -26.864  0.00  0.00    +0.020 C 
ATOM     45  C31 UNL     1      12.061  -8.130 -27.252  0.00  0.00    +0.019 C 
ATOM     46  C32 UNL     1      11.461  -7.617 -25.957  0.00  0.00    +0.072 C 
ATOM     47  N7  UNL     1      12.387  -7.942 -24.874  0.00  0.00    -0.269 NA
ATOM     48  C33 UNL     1      13.293  -6.801 -24.706  0.00  0.00    +0.108 C 
ATOM     49  C34 UNL     1      14.580  -7.413 -24.189  0.00  0.00    +0.178 C 
ATOM     50  C35 UNL     1      14.606  -8.813 -24.764  0.00  0.00    +0.055 C 
ATOM     51  F6  UNL     1      15.642  -6.726 -24.690  0.00  0.00    -0.236 F 
ENDBRANCH  42  43
ENDBRANCH  41  42
ENDBRANCH  13  41
TORSDOF 7
ENDMDL
