MODEL 1
REMARK VINA RESULT:    -6.247      0.000      0.000
REMARK INTER + INTRA:         -11.224
REMARK INTER:                  -9.534
REMARK INTRA:                  -1.689
REMARK UNBOUND:                -1.689
REMARK  Name = /tmp/tmparaph1me/6N2J_candidate_0074.pdb
REMARK  9 active torsions:
REMARK  status: ('A' for Active; 'I' for Inactive)
REMARK    1  A    between atoms: C7_7  and  O14_67
REMARK    2  A    between atoms: C18_19  and  O13_62
REMARK    3  A    between atoms: C25_27  and  C35_44
REMARK    4  A    between atoms: C35_44  and  C37_46
REMARK    5  A    between atoms: C37_46  and  C38_47
REMARK    6  A    between atoms: C41_50  and  O10_55
REMARK    7  A    between atoms: C42_51  and  O9_53
REMARK    8  A    between atoms: O10_55  and  C45_56
REMARK    9  A    between atoms: C45_56  and  C46_57
REMARK                            x       y       z     vdW  Elec       q    Type
REMARK                         _______ _______ _______ _____ _____    ______ ____
ROOT
ATOM      1  C1  UNL     1       0.513   6.330 -16.812  0.00  0.00    +0.006 C 
ATOM      2  C2  UNL     1       0.604   5.921 -18.267  0.00  0.00    +0.062 C 
ATOM      3  C3  UNL     1       0.788   7.157 -19.106  0.00  0.00    +0.008 C 
ATOM      4  C4  UNL     1       0.825   6.776 -20.562  0.00  0.00    +0.030 C 
ATOM      5  C5  UNL     1      -0.437   6.015 -20.922  0.00  0.00    +0.121 C 
ATOM      6  C6  UNL     1      -0.387   5.574 -22.370  0.00  0.00    +0.063 C 
ATOM      7  C7  UNL     1      -0.212   6.743 -23.316  0.00  0.00    +0.136 C 
ATOM      8  C8  UNL     1       0.073   6.245 -24.688  0.00  0.00    -0.017 C 
ATOM      9  C9  UNL     1       1.317   6.358 -25.176  0.00  0.00    -0.006 C 
ATOM     10  C10 UNL     1       1.772   5.855 -26.436  0.00  0.00    -0.001 C 
ATOM     11  C11 UNL     1       1.953   6.628 -27.509  0.00  0.00    -0.000 C 
ATOM     12  C12 UNL     1       2.434   6.080 -28.741  0.00  0.00    -0.005 C 
ATOM     13  C13 UNL     1       3.735   5.988 -29.013  0.00  0.00    -0.026 C 
ATOM     14  C14 UNL     1       4.238   5.318 -30.238  0.00  0.00    +0.022 C 
ATOM     15  C15 UNL     1       5.104   4.141 -29.840  0.00  0.00    +0.012 C 
ATOM     16  C16 UNL     1       5.007   3.040 -30.867  0.00  0.00    +0.061 C 
ATOM     17  C17 UNL     1       3.865   2.107 -30.559  0.00  0.00    +0.180 C 
ATOM     18  O1  UNL     1       2.831   2.158 -31.228  0.00  0.00    -0.293 OA
ATOM     19  C18 UNL     1       4.048   1.116 -29.411  0.00  0.00    +0.206 C 
ATOM     20  C19 UNL     1       2.965   1.419 -28.376  0.00  0.00    +0.204 C 
ATOM     21  C20 UNL     1       2.855   0.381 -27.290  0.00  0.00    -0.015 C 
ATOM     22  C21 UNL     1       3.609   0.392 -26.179  0.00  0.00    -0.025 C 
ATOM     23  C22 UNL     1       3.526  -0.591 -25.070  0.00  0.00    +0.079 C 
ATOM     24  C23 UNL     1       3.399   0.155 -23.757  0.00  0.00    +0.158 C 
ATOM     25  O2  UNL     1       4.369   0.537 -23.102  0.00  0.00    -0.296 OA
ATOM     26  C24 UNL     1       1.988   0.428 -23.309  0.00  0.00    +0.108 C 
ATOM     27  C25 UNL     1       1.506  -0.495 -22.214  0.00  0.00    +0.176 C 
ATOM     28  O3  UNL     1       1.870  -0.020 -20.926  0.00  0.00    -0.451 OA
ATOM     29  C26 UNL     1       0.782   0.036 -20.113  0.00  0.00    +0.335 C 
ATOM     30  O4  UNL     1      -0.357  -0.271 -20.449  0.00  0.00    -0.248 OA
ATOM     31  C27 UNL     1       1.197   0.481 -18.717  0.00  0.00    +0.175 C 
ATOM     32  C28 UNL     1       1.377  -0.749 -17.840  0.00  0.00    +0.031 C 
ATOM     33  C29 UNL     1       0.061  -1.318 -17.343  0.00  0.00    +0.004 C 
ATOM     34  C30 UNL     1      -0.804  -0.248 -16.714  0.00  0.00    +0.022 C 
ATOM     35  C31 UNL     1      -1.015   0.910 -17.667  0.00  0.00    +0.094 C 
ATOM     36  N1  UNL     1       0.257   1.427 -18.132  0.00  0.00    -0.265 N 
ATOM     37  C32 UNL     1       0.478   2.776 -18.373  0.00  0.00    +0.289 C 
ATOM     38  O5  UNL     1       1.520   3.194 -18.870  0.00  0.00    -0.267 OA
ATOM     39  C33 UNL     1      -0.614   3.769 -17.967  0.00  0.00    +0.279 C 
ATOM     40  O6  UNL     1      -1.391   3.496 -17.057  0.00  0.00    -0.281 OA
ATOM     41  C34 UNL     1      -0.602   5.096 -18.732  0.00  0.00    +0.279 C 
ATOM     42  O7  UNL     1      -0.544   4.824 -20.138  0.00  0.00    -0.329 OA
ATOM     43  O8  UNL     1      -1.800   5.808 -18.433  0.00  0.00    -0.187 OA
ATOM     44  C47 UNL     1       4.762  -1.465 -25.070  0.00  0.00    +0.012 C 
ATOM     45  C48 UNL     1       1.827  -0.671 -27.540  0.00  0.00    +0.029 C 
ATOM     46  O12 UNL     1       3.232   2.688 -27.792  0.00  0.00    -0.216 OA
ATOM     47  C50 UNL     1       6.316   2.300 -30.966  0.00  0.00    +0.008 C 
ATOM     48  C51 UNL     1       5.060   6.303 -31.035  0.00  0.00    +0.005 C 
ATOM     49  C52 UNL     1      -1.031   5.563 -25.416  0.00  0.00    +0.029 C 
ENDROOT
BRANCH  27  50
ATOM     50  C35 UNL     1       1.718  -1.986 -22.342  0.00  0.00    +0.041 C 
ATOM     51  C36 UNL     1       0.441  -2.779 -22.492  0.00  0.00    +0.004 C 
BRANCH  50  52
ATOM     52  C37 UNL     1       2.636  -2.544 -21.276  0.00  0.00    +0.004 C 
BRANCH  52  53
ATOM     53  C38 UNL     1       3.013  -3.996 -21.501  0.00  0.00    +0.003 C 
ATOM     54  C39 UNL     1       3.118  -4.763 -20.193  0.00  0.00    +0.003 C 
ATOM     55  C40 UNL     1       3.545  -6.201 -20.407  0.00  0.00    +0.032 C 
ATOM     56  C41 UNL     1       4.849  -6.254 -21.181  0.00  0.00    +0.142 C 
ATOM     57  C42 UNL     1       4.724  -5.528 -22.523  0.00  0.00    +0.142 C 
ATOM     58  C43 UNL     1       4.261  -4.096 -22.347  0.00  0.00    +0.032 C 
BRANCH  57  59
ATOM     59  O9  UNL     1       5.886  -5.583 -23.335  0.00  0.00    -0.351 OA
ATOM     60  C44 UNL     1       5.561  -5.350 -24.704  0.00  0.00    +0.174 C 
ENDBRANCH  57  59
BRANCH  56  61
ATOM     61  O10 UNL     1       5.335  -7.586 -21.275  0.00  0.00    -0.351 OA
BRANCH  61  62
ATOM     62  C45 UNL     1       4.353  -8.445 -21.850  0.00  0.00    +0.178 C 
BRANCH  62  63
ATOM     63  C46 UNL     1       5.031  -9.681 -22.395  0.00  0.00    +0.214 C 
ATOM     64  O11 UNL     1       5.657 -10.355 -21.309  0.00  0.00    -0.218 OA
ENDBRANCH  62  63
ENDBRANCH  61  62
ENDBRANCH  56  61
ENDBRANCH  52  53
ENDBRANCH  50  52
ENDBRANCH  27  50
BRANCH  19  65
ATOM     65  O13 UNL     1       3.912  -0.212 -29.921  0.00  0.00    -0.343 OA
ATOM     66  C49 UNL     1       5.102  -0.924 -29.617  0.00  0.00    +0.175 C 
ENDBRANCH  19  65
BRANCH   7  67
ATOM     67  O14 UNL     1      -1.377   7.550 -23.312  0.00  0.00    -0.349 OA
ATOM     68  C53 UNL     1      -0.952   8.910 -23.296  0.00  0.00    +0.174 C 
ENDBRANCH   7  67
TORSDOF 9
ENDMDL
