MODEL 1
REMARK VINA RESULT:    -6.400      0.000      0.000
REMARK INTER + INTRA:         -10.096
REMARK INTER:                  -8.645
REMARK INTRA:                  -1.452
REMARK UNBOUND:                -1.452
REMARK  Name = /tmp/tmp5mnzefkt/6N2J_candidate_0067.pdb
REMARK  6 active torsions:
REMARK  status: ('A' for Active; 'I' for Inactive)
REMARK    1  A    between atoms: N2_7  and  C6_8
REMARK    2  A    between atoms: C8_10  and  N8_32
REMARK    3  A    between atoms: C10_12  and  C11_14
REMARK    4  A    between atoms: C12_17  and  C13_19
REMARK    5  A    between atoms: C19_25  and  C21_29
REMARK    6  A    between atoms: C27_38  and  C28_40
REMARK                            x       y       z     vdW  Elec       q    Type
REMARK                         _______ _______ _______ _____ _____    ______ ____
ROOT
ATOM      1  C6  UNL     1      21.291 -10.919 -27.450  0.00  0.00    +0.133 A 
ATOM      2  C7  UNL     1      22.067 -10.071 -28.247  0.00  0.00    +0.049 A 
ATOM      3  C8  UNL     1      21.530  -8.925 -28.839  0.00  0.00    +0.052 A 
ATOM      4  C9  UNL     1      20.179  -8.683 -28.612  0.00  0.00    +0.037 A 
ATOM      5  C10 UNL     1      19.451  -9.543 -27.802  0.00  0.00    +0.123 A 
ATOM      6  N3  UNL     1      19.990 -10.644 -27.216  0.00  0.00    -0.227 NA
ENDROOT
BRANCH   1  13
ATOM      7  C1  UNL     1      24.049 -12.140 -25.760  0.00  0.00    +0.023 C 
ATOM      8  C2  UNL     1      23.316 -12.143 -27.083  0.00  0.00    +0.090 C 
ATOM      9  C3  UNL     1      23.684 -13.382 -27.909  0.00  0.00    +0.092 C 
ATOM     10  N1  UNL     1      23.105 -14.673 -27.531  0.00  0.00    -0.269 NA
ATOM     11  C4  UNL     1      21.899 -14.490 -26.722  0.00  0.00    +0.094 C 
ATOM     12  C5  UNL     1      21.094 -13.244 -27.074  0.00  0.00    +0.109 C 
ATOM     13  N2  UNL     1      21.879 -12.034 -26.831  0.00  0.00    -0.292 N 
ATOM     14  C30 UNL     1      24.071 -15.374 -26.707  0.00  0.00    +0.090 C 
ENDBRANCH   1  13
BRANCH   3  15
ATOM     15  N8  UNL     1      22.294  -8.104 -29.669  0.00  0.00    -0.304 N 
ATOM     16  C23 UNL     1      23.733  -8.095 -29.409  0.00  0.00    +0.112 C 
ATOM     17  C24 UNL     1      24.251  -6.717 -29.006  0.00  0.00    +0.115 C 
ATOM     18  N9  UNL     1      23.843  -5.664 -29.924  0.00  0.00    -0.273 N 
ATOM     19  C25 UNL     1      22.657  -5.886 -30.732  0.00  0.00    +0.115 C 
ATOM     20  C26 UNL     1      21.668  -6.845 -30.077  0.00  0.00    +0.112 C 
ATOM     21  C27 UNL     1      24.492  -4.457 -30.047  0.00  0.00    +0.249 C 
ATOM     22  O2  UNL     1      24.125  -3.572 -30.812  0.00  0.00    -0.270 OA
BRANCH  21  23
ATOM     23  C28 UNL     1      25.679  -4.316 -29.171  0.00  0.00    +0.058 C 
ATOM     24  C29 UNL     1      26.320  -3.146 -29.167  0.00  0.00    +0.005 C 
ENDBRANCH  21  23
ENDBRANCH   3  15
BRANCH   5  25
ATOM     25  C11 UNL     1      18.037  -9.274 -27.552  0.00  0.00    +0.221 A 
ATOM     26  N4  UNL     1      17.213  -8.709 -28.453  0.00  0.00    -0.054 NA
ATOM     27  O1  UNL     1      15.989  -8.642 -27.795  0.00  0.00    -0.337 OA
ATOM     28  C12 UNL     1      16.178  -9.181 -26.555  0.00  0.00    +0.239 A 
ATOM     29  N5  UNL     1      17.413  -9.581 -26.356  0.00  0.00    -0.189 NA
BRANCH  28  30
ATOM     30  C13 UNL     1      15.006  -9.216 -25.625  0.00  0.00    +0.091 C 
ATOM     31  C14 UNL     1      15.283  -8.272 -24.442  0.00  0.00    +0.013 C 
ATOM     32  C15 UNL     1      15.052  -6.802 -24.760  0.00  0.00    +0.006 C 
ATOM     33  C16 UNL     1      13.618  -6.529 -25.176  0.00  0.00    +0.033 C 
ATOM     34  C17 UNL     1      13.130  -7.582 -26.106  0.00  0.00    +0.006 A 
ATOM     35  C18 UNL     1      13.721  -8.812 -26.330  0.00  0.00    -0.001 A 
ATOM     36  C19 UNL     1      12.956  -9.565 -27.295  0.00  0.00    +0.088 A 
ATOM     37  C20 UNL     1      11.844  -8.879 -27.747  0.00  0.00    +0.127 A 
ATOM     38  S1  UNL     1      11.719  -7.338 -27.011  0.00  0.00    -0.073 S 
ATOM     39  N6  UNL     1      10.919  -9.297 -28.649  0.00  0.00    -0.120 NA
ATOM     40  C22 UNL     1      14.865 -10.593 -24.996  0.00  0.00    +0.014 C 
BRANCH  36  41
ATOM     41  C21 UNL     1      13.274 -10.884 -27.761  0.00  0.00    +0.102 C 
ATOM     42  N7  UNL     1      13.500 -11.950 -28.158  0.00  0.00    -0.191 NA
ENDBRANCH  36  41
ENDBRANCH  28  30
ENDBRANCH   5  25
TORSDOF 6
ENDMDL
