MODEL 1
REMARK VINA RESULT:    -5.848      0.000      0.000
REMARK INTER + INTRA:         -10.317
REMARK INTER:                  -7.899
REMARK INTRA:                  -2.418
REMARK UNBOUND:                -2.418
REMARK  Name = /tmp/tmpr2v_nemm/6N2J_candidate_0094.pdb
REMARK  6 active torsions:
REMARK  status: ('A' for Active; 'I' for Inactive)
REMARK    1  A    between atoms: C3_3  and  N2_11
REMARK    2  A    between atoms: C4_4  and  C7_8
REMARK    3  A    between atoms: C11_14  and  C26_35
REMARK    4  A    between atoms: C15_18  and  N5_24
REMARK    5  A    between atoms: C16_19  and  C18_22
REMARK    6  A    between atoms: C23_30  and  C24_32
REMARK                            x       y       z     vdW  Elec       q    Type
REMARK                         _______ _______ _______ _____ _____    ______ ____
ROOT
ATOM      1  N2  UNL     1       1.696   1.145 -20.893  0.00  0.00    -0.258 N 
ATOM      2  C10 UNL     1       2.369   0.919 -22.118  0.00  0.00    +0.151 A 
ATOM      3  N3  UNL     1       2.552   1.959 -22.975  0.00  0.00    -0.227 NA
ATOM      4  C11 UNL     1       3.151   1.747 -24.174  0.00  0.00    +0.097 A 
ATOM      5  C12 UNL     1       3.575   0.487 -24.562  0.00  0.00    +0.076 A 
ATOM      6  C13 UNL     1       3.376  -0.563 -23.678  0.00  0.00    +0.017 A 
ATOM      7  C14 UNL     1       2.779  -0.374 -22.427  0.00  0.00    +0.050 A 
ATOM      8  C15 UNL     1       2.546  -1.516 -21.507  0.00  0.00    +0.065 A 
ATOM      9  C16 UNL     1       1.844  -1.260 -20.378  0.00  0.00    +0.138 A 
ATOM     10  C17 UNL     1       1.377   0.115 -20.021  0.00  0.00    +0.277 A 
ATOM     11  O1  UNL     1       0.767   0.284 -18.964  0.00  0.00    -0.266 OA
ATOM     12 CL1  UNL     1       4.313   0.152 -26.076  0.00  0.00    -0.081 Cl
ENDROOT
BRANCH   4  13
ATOM     13  C26 UNL     1       3.306   2.956 -24.983  0.00  0.00    +0.067 A 
ATOM     14  C27 UNL     1       2.288   3.409 -25.846  0.00  0.00    +0.122 A 
ATOM     15  C28 UNL     1       2.476   4.589 -26.579  0.00  0.00    +0.186 A 
ATOM     16  C29 UNL     1       3.651   5.321 -26.465  0.00  0.00    +0.198 A 
ATOM     17  C30 UNL     1       4.655   4.883 -25.619  0.00  0.00    +0.197 A 
ATOM     18  C31 UNL     1       4.484   3.714 -24.886  0.00  0.00    +0.173 A 
ATOM     19  F1  UNL     1       5.469   3.306 -24.070  0.00  0.00    -0.202 F 
ATOM     20  F2  UNL     1       5.794   5.581 -25.508  0.00  0.00    -0.199 F 
ATOM     21  F3  UNL     1       3.814   6.443 -27.178  0.00  0.00    -0.199 F 
ATOM     22  F4  UNL     1       1.513   5.020 -27.409  0.00  0.00    -0.200 F 
ATOM     23  N7  UNL     1       1.084   2.685 -25.997  0.00  0.00    -0.126 NA
ENDBRANCH   4  13
BRANCH   8  24
ATOM     24  N5  UNL     1       3.046  -2.759 -21.932  0.00  0.00    -0.303 N 
ATOM     25  C19 UNL     1       2.178  -3.891 -22.300  0.00  0.00    +0.112 C 
ATOM     26  C20 UNL     1       2.830  -4.763 -23.370  0.00  0.00    +0.115 C 
ATOM     27  N6  UNL     1       4.196  -5.134 -23.049  0.00  0.00    -0.273 N 
ATOM     28  C21 UNL     1       5.053  -4.102 -22.488  0.00  0.00    +0.115 C 
ATOM     29  C22 UNL     1       4.345  -3.247 -21.436  0.00  0.00    +0.112 C 
ATOM     30  C23 UNL     1       4.700  -6.252 -23.682  0.00  0.00    +0.249 C 
ATOM     31  O2  UNL     1       4.011  -7.011 -24.355  0.00  0.00    -0.270 OA
BRANCH  30  32
ATOM     32  C24 UNL     1       6.152  -6.469 -23.467  0.00  0.00    +0.058 C 
ATOM     33  C25 UNL     1       6.824  -7.165 -24.385  0.00  0.00    +0.005 C 
ENDBRANCH  30  32
ENDBRANCH   8  24
BRANCH   1  36
ATOM     34  C1  UNL     1      -0.973   2.074 -21.733  0.00  0.00    +0.033 C 
ATOM     35  C2  UNL     1      -0.004   2.927 -20.984  0.00  0.00    -0.003 A 
ATOM     36  C3  UNL     1       1.276   2.483 -20.615  0.00  0.00    +0.078 A 
ATOM     37  C4  UNL     1       2.109   3.396 -19.938  0.00  0.00    +0.074 A 
ATOM     38  N1  UNL     1       1.735   4.672 -19.650  0.00  0.00    -0.247 NA
ATOM     39  C5  UNL     1       0.500   5.055 -20.034  0.00  0.00    +0.098 A 
ATOM     40  C6  UNL     1      -0.394   4.231 -20.692  0.00  0.00    +0.018 A 
BRANCH  37  41
ATOM     41  C7  UNL     1       3.448   2.963 -19.414  0.00  0.00    +0.042 C 
ATOM     42  C8  UNL     1       3.703   3.571 -18.056  0.00  0.00    +0.006 C 
ATOM     43  C9  UNL     1       4.563   3.330 -20.364  0.00  0.00    +0.006 C 
ENDBRANCH  37  41
ENDBRANCH   1  36
BRANCH   9  44
ATOM     44  C18 UNL     1       1.553  -2.275 -19.421  0.00  0.00    +0.107 C 
ATOM     45  N4  UNL     1       1.300  -3.139 -18.688  0.00  0.00    -0.191 NA
ENDBRANCH   9  44
TORSDOF 6
ENDMDL
