MODEL 1
REMARK VINA RESULT:    -6.399      0.000      0.000
REMARK INTER + INTRA:          -9.929
REMARK INTER:                  -7.895
REMARK INTRA:                  -2.034
REMARK UNBOUND:                -2.034
REMARK  Name = /tmp/tmp3209rgdr/6N2J_candidate_0064.pdb
REMARK  4 active torsions:
REMARK  status: ('A' for Active; 'I' for Inactive)
REMARK    1  A    between atoms: C7_9  and  C9_12
REMARK    2  A    between atoms: N3_14  and  C20_27
REMARK    3  A    between atoms: C11_16  and  C12_17
REMARK    4  A    between atoms: C26_34  and  C27_36
REMARK                            x       y       z     vdW  Elec       q    Type
REMARK                         _______ _______ _______ _____ _____    ______ ____
ROOT
ATOM      1  C9  UNL     1      13.606 -10.425 -25.942  0.00  0.00    +0.033 A 
ATOM      2  C10 UNL     1      12.916 -11.452 -25.331  0.00  0.00    +0.057 A 
ATOM      3  N3  UNL     1      13.758 -12.524 -25.368  0.00  0.00    -0.257 N 
ATOM      4  N4  UNL     1      14.941 -12.270 -25.944  0.00  0.00    -0.170 NA
ATOM      5  C11 UNL     1      14.874 -10.979 -26.315  0.00  0.00    +0.102 A 
ATOM      6  C29 UNL     1      11.568 -11.518 -24.736  0.00  0.00    +0.052 C 
ENDROOT
BRANCH   1  15
ATOM      7  C1  UNL     1      10.681  -7.068 -28.325  0.00  0.00    +0.032 C 
ATOM      8  C2  UNL     1      11.655  -7.453 -27.259  0.00  0.00    -0.010 A 
ATOM      9  C3  UNL     1      12.074  -6.444 -26.383  0.00  0.00    +0.018 A 
ATOM     10  C4  UNL     1      12.985  -6.802 -25.390  0.00  0.00    +0.104 A 
ATOM     11  C5  UNL     1      13.480  -8.089 -25.236  0.00  0.00    +0.041 A 
ATOM     12  C6  UNL     1      14.359  -7.990 -24.131  0.00  0.00    +0.124 A 
ATOM     13  N1  UNL     1      14.412  -6.759 -23.618  0.00  0.00    -0.146 NA
ATOM     14  N2  UNL     1      13.578  -6.061 -24.405  0.00  0.00    -0.148 NA
ATOM     15  C7  UNL     1      13.053  -9.100 -26.121  0.00  0.00    +0.016 A 
ATOM     16  C8  UNL     1      12.134  -8.766 -27.136  0.00  0.00    +0.054 A 
ATOM     17 CL1  UNL     1      11.579  -9.974 -28.252  0.00  0.00    -0.083 Cl
ENDBRANCH   1  15
BRANCH   5  18
ATOM     18  C12 UNL     1      16.003 -10.340 -26.989  0.00  0.00    +0.020 A 
ATOM     19  C13 UNL     1      17.298 -10.440 -26.468  0.00  0.00    +0.005 A 
ATOM     20  C14 UNL     1      18.361  -9.815 -27.135  0.00  0.00    +0.038 A 
ATOM     21  C15 UNL     1      18.109  -9.108 -28.305  0.00  0.00    +0.079 A 
ATOM     22  C16 UNL     1      16.834  -8.990 -28.863  0.00  0.00    +0.019 A 
ATOM     23  C17 UNL     1      15.795  -9.624 -28.173  0.00  0.00    +0.003 A 
ATOM     24  N5  UNL     1      19.327  -8.631 -28.695  0.00  0.00    -0.249 N 
ATOM     25  N6  UNL     1      20.344  -8.961 -27.883  0.00  0.00    -0.168 NA
ATOM     26  C18 UNL     1      19.752  -9.686 -26.929  0.00  0.00    +0.122 A 
ATOM     27  C19 UNL     1      19.591  -7.813 -29.859  0.00  0.00    +0.154 C 
ENDBRANCH   5  18
BRANCH   3  28
ATOM     28  C20 UNL     1      13.406 -13.843 -24.809  0.00  0.00    +0.105 C 
ATOM     29  C21 UNL     1      13.937 -14.005 -23.367  0.00  0.00    +0.028 C 
ATOM     30  C22 UNL     1      14.930 -14.995 -23.892  0.00  0.00    +0.040 C 
ATOM     31  C23 UNL     1      14.376 -14.948 -25.281  0.00  0.00    +0.028 C 
ATOM     32  C24 UNL     1      16.381 -14.689 -23.705  0.00  0.00    +0.095 C 
ATOM     33  N7  UNL     1      16.444 -15.943 -22.958  0.00  0.00    -0.276 N 
ATOM     34  C25 UNL     1      15.055 -16.317 -23.211  0.00  0.00    +0.095 C 
ATOM     35  C26 UNL     1      17.497 -16.796 -22.776  0.00  0.00    +0.249 C 
ATOM     36  O1  UNL     1      17.378 -17.982 -22.497  0.00  0.00    -0.270 OA
BRANCH  35  37
ATOM     37  C27 UNL     1      18.808 -16.127 -22.930  0.00  0.00    +0.058 C 
ATOM     38  C28 UNL     1      19.665 -16.190 -21.909  0.00  0.00    +0.005 C 
ENDBRANCH  35  37
ENDBRANCH   3  28
TORSDOF 4
ENDMDL
