MODEL 1
REMARK VINA RESULT:    -6.299      0.000      0.000
REMARK INTER + INTRA:         -10.760
REMARK INTER:                  -9.246
REMARK INTRA:                  -1.514
REMARK UNBOUND:                -1.514
REMARK  Name = /tmp/tmpfn0mwca3/6N2J_candidate_0071.pdb
REMARK  8 active torsions:
REMARK  status: ('A' for Active; 'I' for Inactive)
REMARK    1  A    between atoms: C4_5  and  C7_8
REMARK    2  A    between atoms: C7_8  and  O1_9
REMARK    3  A    between atoms: O1_9  and  C8_10
REMARK    4  A    between atoms: C10_13  and  C12_16
REMARK    5  A    between atoms: C16_20  and  C18_22
REMARK    6  A    between atoms: C18_22  and  N4_23
REMARK    7  A    between atoms: C22_28  and  C23_30
REMARK    8  A    between atoms: C27_34  and  C29_36
REMARK                            x       y       z     vdW  Elec       q    Type
REMARK                         _______ _______ _______ _____ _____    ______ ____
ROOT
ATOM      1  C12 UNL     1       4.172   5.910  -3.663  0.00  0.00    +0.036 A 
ATOM      2  C13 UNL     1       2.936   5.465  -3.176  0.00  0.00    +0.003 A 
ATOM      3  C14 UNL     1       2.688   5.351  -1.809  0.00  0.00    -0.000 A 
ATOM      4  C15 UNL     1       3.684   5.679  -0.896  0.00  0.00    -0.002 A 
ATOM      5  C16 UNL     1       4.925   6.119  -1.350  0.00  0.00    +0.002 A 
ATOM      6  C17 UNL     1       5.156   6.236  -2.722  0.00  0.00    +0.001 A 
ENDROOT
BRANCH   1  10
ATOM      7  C8  UNL     1       4.876   6.213  -7.779  0.00  0.00    +0.177 A 
ATOM      8  C9  UNL     1       3.848   6.868  -7.147  0.00  0.00    +0.139 A 
ATOM      9  N2  UNL     1       3.593   6.795  -5.826  0.00  0.00    -0.222 NA
ATOM     10  C10 UNL     1       4.423   6.022  -5.101  0.00  0.00    +0.162 A 
ATOM     11  N3  UNL     1       5.464   5.341  -5.612  0.00  0.00    -0.222 NA
ATOM     12  C11 UNL     1       5.659   5.459  -6.940  0.00  0.00    +0.139 A 
BRANCH   7  13
ATOM     13  O1  UNL     1       5.025   6.359  -9.120  0.00  0.00    -0.472 OA
BRANCH  13  14
ATOM     14  C7  UNL     1       6.296   6.922  -9.431  0.00  0.00    +0.206 C 
BRANCH  14  19
ATOM     15  C1  UNL     1       6.348  11.699  -9.102  0.00  0.00    +0.090 C 
ATOM     16  N1  UNL     1       6.409  10.276  -9.378  0.00  0.00    -0.272 NA
ATOM     17  C2  UNL     1       5.046   9.830  -9.627  0.00  0.00    +0.072 C 
ATOM     18  C3  UNL     1       4.934   8.673 -10.606  0.00  0.00    +0.021 C 
ATOM     19  C4  UNL     1       6.174   7.802 -10.655  0.00  0.00    +0.047 C 
ATOM     20  C5  UNL     1       7.442   8.619 -10.806  0.00  0.00    +0.021 C 
ATOM     21  C6  UNL     1       7.218  10.100 -10.574  0.00  0.00    +0.072 C 
ENDBRANCH  14  19
ENDBRANCH  13  14
ENDBRANCH   7  13
ENDBRANCH   1  10
BRANCH   5  22
ATOM     22  C18 UNL     1       5.991   6.485  -0.370  0.00  0.00    +0.157 C 
BRANCH  22  23
ATOM     23  N4  UNL     1       7.310   6.065  -0.793  0.00  0.00    -0.212 N 
ATOM     24  C19 UNL     1       8.203   7.042  -1.190  0.00  0.00    +0.277 A 
ATOM     25  O2  UNL     1       7.965   8.246  -1.197  0.00  0.00    -0.266 OA
ATOM     26  C20 UNL     1       9.532   6.561  -1.624  0.00  0.00    +0.064 A 
ATOM     27  C21 UNL     1       9.835   5.264  -1.575  0.00  0.00    +0.026 A 
ATOM     28  C22 UNL     1       8.787   4.350  -1.071  0.00  0.00    +0.101 A 
ATOM     29  N5  UNL     1       7.602   4.725  -0.702  0.00  0.00    -0.167 NA
BRANCH  28  30
ATOM     30  C23 UNL     1       9.162   2.919  -1.005  0.00  0.00    +0.020 A 
ATOM     31  C24 UNL     1      10.399   2.568  -0.458  0.00  0.00    +0.002 A 
ATOM     32  C25 UNL     1      10.777   1.229  -0.387  0.00  0.00    +0.001 A 
ATOM     33  C26 UNL     1       9.922   0.237  -0.863  0.00  0.00    +0.010 A 
ATOM     34  C27 UNL     1       8.689   0.585  -1.409  0.00  0.00    +0.068 A 
ATOM     35  C28 UNL     1       8.307   1.924  -1.480  0.00  0.00    +0.012 A 
BRANCH  34  36
ATOM     36  C29 UNL     1       7.819  -0.428  -1.903  0.00  0.00    +0.100 C 
ATOM     37  N6  UNL     1       7.115  -1.254  -2.313  0.00  0.00    -0.191 NA
ENDBRANCH  34  36
ENDBRANCH  28  30
ENDBRANCH  22  23
ENDBRANCH   5  22
TORSDOF 8
ENDMDL
