MODEL 1
REMARK VINA RESULT:    -6.544      0.000      0.000
REMARK INTER + INTRA:         -10.008
REMARK INTER:                  -8.839
REMARK INTRA:                  -1.169
REMARK UNBOUND:                -1.169
REMARK  Name = /tmp/tmp95s23tcf/6N2J_candidate_0082.pdb
REMARK  6 active torsions:
REMARK  status: ('A' for Active; 'I' for Inactive)
REMARK    1  A    between atoms: C7_10  and  O1_32
REMARK    2  A    between atoms: C10_14  and  C14_19
REMARK    3  A    between atoms: C15_20  and  C20_27
REMARK    4  A    between atoms: O1_32  and  C21_33
REMARK    5  A    between atoms: C21_33  and  C22_34
REMARK    6  A    between atoms: C27_40  and  C28_42
REMARK                            x       y       z     vdW  Elec       q    Type
REMARK                         _______ _______ _______ _____ _____    ______ ____
ROOT
ATOM      1  C1  UNL     1       1.168   5.734  -3.113  0.00  0.00    +0.023 C 
ATOM      2  C2  UNL     1       1.611   5.485  -4.541  0.00  0.00    +0.094 C 
ATOM      3  C3  UNL     1       0.414   5.023  -5.373  0.00  0.00    +0.113 C 
ATOM      4  N1  UNL     1      -0.500   6.098  -5.697  0.00  0.00    -0.273 N 
ATOM      5  C4  UNL     1       0.077   7.400  -5.992  0.00  0.00    +0.115 C 
ATOM      6  C5  UNL     1       1.586   7.337  -6.193  0.00  0.00    +0.114 C 
ATOM      7  N2  UNL     1       2.276   6.691  -5.068  0.00  0.00    -0.291 N 
ATOM      8  C6  UNL     1       3.585   6.320  -5.493  0.00  0.00    +0.138 A 
ATOM      9  N3  UNL     1       3.843   6.275  -6.812  0.00  0.00    -0.179 NA
ATOM     10  C7  UNL     1       5.073   5.913  -7.183  0.00  0.00    +0.321 A 
ATOM     11  N4  UNL     1       6.073   5.588  -6.356  0.00  0.00    -0.192 NA
ATOM     12  C8  UNL     1       5.826   5.644  -5.041  0.00  0.00    +0.116 A 
ATOM     13  C9  UNL     1       6.826   5.326  -4.116  0.00  0.00    +0.160 A 
ATOM     14  C10 UNL     1       6.640   5.374  -2.723  0.00  0.00    +0.057 A 
ATOM     15  C11 UNL     1       5.389   5.777  -2.254  0.00  0.00    +0.061 A 
ATOM     16  C12 UNL     1       4.379   6.095  -3.155  0.00  0.00    +0.016 A 
ATOM     17  C13 UNL     1       4.576   6.017  -4.544  0.00  0.00    +0.053 A 
ATOM     18 CL1  UNL     1       5.027   5.927  -0.577  0.00  0.00    -0.082 Cl
ATOM     19  F4  UNL     1       8.038   4.968  -4.580  0.00  0.00    -0.203 F 
ATOM     20  C27 UNL     1      -1.850   5.866  -5.572  0.00  0.00    +0.249 C 
ATOM     21  O2  UNL     1      -2.317   4.782  -5.241  0.00  0.00    -0.270 OA
ENDROOT
BRANCH  14  22
ATOM     22  C14 UNL     1       7.724   4.962  -1.831  0.00  0.00    +0.089 A 
ATOM     23  C15 UNL     1       8.697   5.811  -1.302  0.00  0.00    +0.085 A 
ATOM     24  C16 UNL     1       9.674   5.227  -0.478  0.00  0.00    -0.014 A 
ATOM     25  C17 UNL     1       9.643   3.861  -0.211  0.00  0.00    +0.033 A 
ATOM     26  C18 UNL     1       8.638   3.087  -0.768  0.00  0.00    +0.169 A 
ATOM     27  N5  UNL     1       7.692   3.626  -1.570  0.00  0.00    -0.227 NA
ATOM     28  N6  UNL     1       8.623   1.707  -0.474  0.00  0.00    -0.107 NA
ATOM     29  C19 UNL     1      10.773   6.030   0.141  0.00  0.00    +0.031 C 
BRANCH  23  30
ATOM     30  C20 UNL     1       8.725   7.291  -1.568  0.00  0.00    +0.420 C 
ATOM     31  F1  UNL     1       7.500   7.868  -1.420  0.00  0.00    -0.166 F 
ATOM     32  F2  UNL     1       9.113   7.571  -2.845  0.00  0.00    -0.166 F 
ATOM     33  F3  UNL     1       9.564   8.011  -0.774  0.00  0.00    -0.166 F 
ENDBRANCH  23  30
ENDBRANCH  14  22
BRANCH  20  34
ATOM     34  C28 UNL     1      -2.699   7.043  -5.876  0.00  0.00    +0.058 C 
ATOM     35  C29 UNL     1      -3.480   6.993  -6.955  0.00  0.00    +0.005 C 
ENDBRANCH  20  34
BRANCH  10  36
ATOM     36  O1  UNL     1       5.277   5.877  -8.545  0.00  0.00    -0.445 OA
BRANCH  36  37
ATOM     37  C21 UNL     1       5.114   7.190  -9.066  0.00  0.00    +0.224 C 
BRANCH  37  38
ATOM     38  C22 UNL     1       6.366   8.044  -8.896  0.00  0.00    +0.102 C 
ATOM     39  C23 UNL     1       6.085   9.361  -8.198  0.00  0.00    +0.021 C 
ATOM     40  C24 UNL     1       6.233  10.427  -9.266  0.00  0.00    +0.019 C 
ATOM     41  C25 UNL     1       6.528   9.677 -10.550  0.00  0.00    +0.072 C 
ATOM     42  N7  UNL     1       7.107   8.417 -10.102  0.00  0.00    -0.270 NA
ATOM     43  C26 UNL     1       6.949   7.443 -11.165  0.00  0.00    +0.090 C 
ENDBRANCH  37  38
ENDBRANCH  36  37
ENDBRANCH  10  36
TORSDOF 6
ENDMDL
