MODEL 1
REMARK VINA RESULT:    -5.894      0.000      0.000
REMARK INTER + INTRA:          -7.416
REMARK INTER:                  -6.928
REMARK INTRA:                  -0.488
REMARK UNBOUND:                -0.488
REMARK  Name = /tmp/tmpwa2wsc90/6N2J_candidate_0037.pdb
REMARK  3 active torsions:
REMARK  status: ('A' for Active; 'I' for Inactive)
REMARK    1  A    between atoms: C3_4  and  C4_6
REMARK    2  A    between atoms: N4_14  and  C10_15
REMARK    3  A    between atoms: C17_24  and  N7_27
REMARK                            x       y       z     vdW  Elec       q    Type
REMARK                         _______ _______ _______ _____ _____    ______ ____
ROOT
ATOM      1  C4  UNL     1      11.112  -8.904 -27.197  0.00  0.00    +0.115 A 
ATOM      2  C5  UNL     1      10.583 -10.184 -27.249  0.00  0.00    +0.026 A 
ATOM      3  C6  UNL     1      11.267 -11.013 -26.338  0.00  0.00    +0.055 A 
ATOM      4  C7  UNL     1      11.211 -12.340 -25.940  0.00  0.00    +0.105 A 
ATOM      5  N2  UNL     1      12.075 -12.782 -24.995  0.00  0.00    -0.210 NA
ATOM      6  C8  UNL     1      12.983 -11.936 -24.452  0.00  0.00    +0.244 A 
ATOM      7  N3  UNL     1      13.092 -10.636 -24.790  0.00  0.00    -0.195 NA
ATOM      8  C9  UNL     1      12.222 -10.232 -25.726  0.00  0.00    +0.148 A 
ATOM      9  N4  UNL     1      12.124  -8.965 -26.246  0.00  0.00    -0.311 N 
ATOM     10  N5  UNL     1      13.883 -12.389 -23.466  0.00  0.00    -0.159 NA
ATOM     11  C15 UNL     1      14.039 -13.684 -22.941  0.00  0.00    +0.155 A 
ATOM     12  N6  UNL     1      14.956 -13.854 -21.956  0.00  0.00    -0.226 NA
ATOM     13  C16 UNL     1      15.116 -15.100 -21.449  0.00  0.00    +0.115 A 
ATOM     14  C17 UNL     1      14.406 -16.237 -21.828  0.00  0.00    +0.067 A 
ATOM     15  C18 UNL     1      13.489 -16.027 -22.853  0.00  0.00    +0.019 A 
ATOM     16  C19 UNL     1      13.297 -14.764 -23.405  0.00  0.00    +0.037 A 
ENDROOT
BRANCH  14  17
ATOM     17  N7  UNL     1      14.639 -17.499 -21.289  0.00  0.00    -0.303 N 
ATOM     18  C20 UNL     1      15.528 -17.541 -20.130  0.00  0.00    +0.110 C 
ATOM     19  C21 UNL     1      15.520 -18.925 -19.490  0.00  0.00    +0.110 C 
ATOM     20  N8  UNL     1      14.206 -19.381 -19.040  0.00  0.00    -0.214 NA
ATOM     21  C22 UNL     1      13.124 -18.786 -19.823  0.00  0.00    +0.110 C 
ATOM     22  C23 UNL     1      13.493 -18.405 -21.254  0.00  0.00    +0.110 C 
ENDBRANCH  14  17
BRANCH   1  26
ATOM     23  C1  UNL     1      10.979  -6.269 -29.869  0.00  0.00    +0.115 C 
ATOM     24  N1  UNL     1      11.342  -7.469 -29.165  0.00  0.00    -0.271 N 
ATOM     25  C2  UNL     1      12.293  -8.323 -29.825  0.00  0.00    +0.115 C 
ATOM     26  C3  UNL     1      10.760  -7.697 -27.929  0.00  0.00    +0.265 C 
ATOM     27  O1  UNL     1       9.958  -6.881 -27.471  0.00  0.00    -0.268 OA
ENDBRANCH   1  26
BRANCH   9  28
ATOM     28  C10 UNL     1      12.949  -7.837 -25.870  0.00  0.00    +0.087 C 
ATOM     29  C11 UNL     1      14.430  -8.123 -26.005  0.00  0.00    +0.023 C 
ATOM     30  C12 UNL     1      15.106  -7.189 -25.019  0.00  0.00    +0.002 C 
ATOM     31  C13 UNL     1      14.032  -6.691 -24.067  0.00  0.00    +0.002 C 
ATOM     32  C14 UNL     1      12.755  -7.422 -24.428  0.00  0.00    +0.023 C 
ENDBRANCH   9  28
TORSDOF 3
ENDMDL
