MODEL 1
REMARK VINA RESULT:    -5.784      0.000      0.000
REMARK INTER + INTRA:          -9.366
REMARK INTER:                  -8.150
REMARK INTRA:                  -1.216
REMARK UNBOUND:                -1.216
REMARK  Name = /tmp/tmp4w9y_kau/6N2J_candidate_0043.pdb
REMARK  7 active torsions:
REMARK  status: ('A' for Active; 'I' for Inactive)
REMARK    1  A    between atoms: N1_2  and  C3_4
REMARK    2  A    between atoms: C3_4  and  C4_5
REMARK    3  A    between atoms: C5_6  and  C6_7
REMARK    4  A    between atoms: N2_9  and  C7_10
REMARK    5  A    between atoms: C8_11  and  O2_29
REMARK    6  A    between atoms: N5_20  and  C15_21
REMARK    7  A    between atoms: O2_29  and  C21_30
REMARK                            x       y       z     vdW  Elec       q    Type
REMARK                         _______ _______ _______ _____ _____    ______ ____
ROOT
ATOM      1  C7  UNL     1       6.573  10.972 -10.576  0.00  0.00    +0.108 A 
ATOM      2  C8  UNL     1       5.287  11.401 -10.914  0.00  0.00    +0.155 A 
ATOM      3  C9  UNL     1       5.134  12.646 -11.528  0.00  0.00    +0.057 A 
ATOM      4  C10 UNL     1       6.204  13.481 -11.818  0.00  0.00    +0.089 A 
ATOM      5  C11 UNL     1       7.485  13.048 -11.479  0.00  0.00    +0.053 A 
ATOM      6  C12 UNL     1       7.658  11.797 -10.861  0.00  0.00    +0.024 A 
ATOM      7  C13 UNL     1       8.539  13.918 -11.788  0.00  0.00    +0.155 A 
ATOM      8  N3  UNL     1       8.315  15.109 -12.380  0.00  0.00    -0.207 NA
ATOM      9  C14 UNL     1       7.045  15.420 -12.659  0.00  0.00    +0.200 A 
ATOM     10  N4  UNL     1       5.975  14.657 -12.403  0.00  0.00    -0.224 NA
ATOM     11  N5  UNL     1       9.858  13.501 -11.453  0.00  0.00    -0.194 NA
ENDROOT
BRANCH  11  12
ATOM     12  C15 UNL     1      11.074  14.187 -11.647  0.00  0.00    +0.073 A 
ATOM     13  C16 UNL     1      11.519  15.035 -10.627  0.00  0.00    +0.030 A 
ATOM     14  C17 UNL     1      12.712  15.741 -10.756  0.00  0.00    +0.086 A 
ATOM     15  C18 UNL     1      13.474  15.606 -11.911  0.00  0.00    +0.151 A 
ATOM     16  C19 UNL     1      13.051  14.769 -12.937  0.00  0.00    +0.032 A 
ATOM     17  C20 UNL     1      11.856  14.067 -12.798  0.00  0.00    +0.019 A 
ATOM     18  F1  UNL     1      14.626  16.277 -12.055  0.00  0.00    -0.203 F 
ATOM     19 CL1  UNL     1      13.213  16.766  -9.471  0.00  0.00    -0.080 Cl
ENDBRANCH  11  12
BRANCH   1  22
ATOM     20  C6  UNL     1       7.433   8.644 -10.456  0.00  0.00    +0.269 C 
ATOM     21  O1  UNL     1       8.011   8.563 -11.533  0.00  0.00    -0.268 OA
ATOM     22  N2  UNL     1       6.739   9.724  -9.955  0.00  0.00    -0.172 NA
BRANCH  20  24
ATOM     23  C4  UNL     1       6.205   6.909  -9.296  0.00  0.00    -0.004 C 
ATOM     24  C5  UNL     1       7.372   7.531  -9.479  0.00  0.00    +0.057 C 
BRANCH  23  25
ATOM     25  C3  UNL     1       6.038   5.798  -8.329  0.00  0.00    +0.099 C 
BRANCH  25  27
ATOM     26  C1  UNL     1       4.828   5.049  -6.481  0.00  0.00    +0.090 C 
ATOM     27  N1  UNL     1       4.717   5.780  -7.730  0.00  0.00    -0.267 NA
ATOM     28  C2  UNL     1       4.368   7.148  -7.384  0.00  0.00    +0.090 C 
ENDBRANCH  25  27
ENDBRANCH  23  25
ENDBRANCH  20  24
ENDBRANCH   1  22
BRANCH   2  29
ATOM     29  O2  UNL     1       4.242  10.567 -10.616  0.00  0.00    -0.475 OA
BRANCH  29  30
ATOM     30  C21 UNL     1       2.925  11.059 -10.750  0.00  0.00    +0.198 C 
ATOM     31  C22 UNL     1       2.006  10.313 -11.665  0.00  0.00    +0.078 C 
ATOM     32  C23 UNL     1       0.639  10.732 -11.170  0.00  0.00    +0.146 C 
ATOM     33  O3  UNL     1       0.769  11.312  -9.868  0.00  0.00    -0.350 OA
ATOM     34  C24 UNL     1       2.149  11.319  -9.488  0.00  0.00    +0.185 C 
ENDBRANCH  29  30
ENDBRANCH   2  29
TORSDOF 7
ENDMDL
