MODEL 1
REMARK VINA RESULT:    -5.796      0.000      0.000
REMARK INTER + INTRA:         -10.608
REMARK INTER:                  -8.845
REMARK INTRA:                  -1.763
REMARK UNBOUND:                -1.763
REMARK  Name = /tmp/tmpyn3_6odf/6N2J_candidate_0022.pdb
REMARK  9 active torsions:
REMARK  status: ('A' for Active; 'I' for Inactive)
REMARK    1  A    between atoms: C2_2  and  C3_3
REMARK    2  A    between atoms: C2_2  and  N7_32
REMARK    3  A    between atoms: C3_3  and  N1_4
REMARK    4  A    between atoms: C7_9  and  C8_11
REMARK    5  A    between atoms: N4_13  and  C18_29
REMARK    6  A    between atoms: C10_15  and  C11_16
REMARK    7  A    between atoms: C13_18  and  N6_23
REMARK    8  A    between atoms: N6_23  and  S1_24
REMARK    9  A    between atoms: C21_33  and  O4_35
REMARK                            x       y       z     vdW  Elec       q    Type
REMARK                         _______ _______ _______ _____ _____    ______ ____
ROOT
ATOM      1  C8  UNL     1       4.975   9.602 -10.563  0.00  0.00    +0.056 A 
ATOM      2  C9  UNL     1       3.679   9.421 -11.008  0.00  0.00    +0.098 A 
ATOM      3  N4  UNL     1       3.148  10.663 -11.156  0.00  0.00    -0.251 N 
ATOM      4  N5  UNL     1       3.995  11.654 -10.848  0.00  0.00    -0.169 NA
ATOM      5  C10 UNL     1       5.130  11.024 -10.494  0.00  0.00    +0.106 A 
ENDROOT
BRANCH   5   6
ATOM      6  C11 UNL     1       6.291  11.817 -10.130  0.00  0.00    +0.049 A 
ATOM      7  C12 UNL     1       7.126  12.383 -11.096  0.00  0.00    +0.158 A 
ATOM      8  C13 UNL     1       8.210  13.180 -10.719  0.00  0.00    +0.119 A 
ATOM      9  C14 UNL     1       8.426  13.460  -9.371  0.00  0.00    +0.032 A 
ATOM     10  C15 UNL     1       7.588  12.907  -8.409  0.00  0.00    +0.059 A 
ATOM     11  C16 UNL     1       6.523  12.094  -8.780  0.00  0.00    +0.015 A 
ATOM     12 CL1  UNL     1       7.852  13.268  -6.755  0.00  0.00    -0.082 Cl
ATOM     13  F1  UNL     1       6.878  12.189 -12.402  0.00  0.00    -0.203 F 
BRANCH   8  14
ATOM     14  N6  UNL     1       8.989  13.815 -11.745  0.00  0.00    -0.098 NA
BRANCH  14  15
ATOM     15  S1  UNL     1       8.398  15.274 -12.395  0.00  0.00    +0.075 S 
ATOM     16  O1  UNL     1       8.061  16.161 -11.300  0.00  0.00    -0.153 OA
ATOM     17  O2  UNL     1       7.441  14.989 -13.446  0.00  0.00    -0.153 OA
ATOM     18  C17 UNL     1       9.884  15.903 -13.138  0.00  0.00    +0.202 C 
ENDBRANCH  14  15
ENDBRANCH   8  14
ENDBRANCH   5   6
BRANCH   1  24
ATOM     19  N1  UNL     1       5.822   5.560  -8.147  0.00  0.00    -0.202 NA
ATOM     20  C4  UNL     1       6.206   6.531  -9.077  0.00  0.00    +0.237 A 
ATOM     21  N2  UNL     1       7.396   6.345  -9.669  0.00  0.00    -0.211 NA
ATOM     22  C5  UNL     1       7.800   7.277 -10.545  0.00  0.00    +0.103 A 
ATOM     23  C6  UNL     1       7.072   8.385 -10.884  0.00  0.00    +0.040 A 
ATOM     24  C7  UNL     1       5.858   8.492 -10.244  0.00  0.00    +0.089 A 
ATOM     25  N3  UNL     1       5.413   7.587  -9.345  0.00  0.00    -0.212 NA
BRANCH  19  26
ATOM     26  C3  UNL     1       4.663   5.972  -7.382  0.00  0.00    +0.137 C 
BRANCH  26  28
ATOM     27  C1  UNL     1       3.236   4.403  -6.024  0.00  0.00    +0.025 C 
ATOM     28  C2  UNL     1       4.523   5.189  -6.090  0.00  0.00    +0.120 C 
BRANCH  28  29
ATOM     29  N7  UNL     1       4.698   5.985  -4.907  0.00  0.00    -0.169 NA
ATOM     30  C21 UNL     1       5.876   5.949  -4.207  0.00  0.00    +0.421 C 
ATOM     31  O3  UNL     1       6.852   5.270  -4.508  0.00  0.00    -0.225 OA
BRANCH  30  32
ATOM     32  O4  UNL     1       5.811   6.772  -3.129  0.00  0.00    -0.429 OA
ATOM     33  C22 UNL     1       6.429   8.024  -3.402  0.00  0.00    +0.257 C 
ENDBRANCH  30  32
ENDBRANCH  28  29
ENDBRANCH  26  28
ENDBRANCH  19  26
ENDBRANCH   1  24
BRANCH   3  34
ATOM     34  C18 UNL     1       1.801  10.938 -11.604  0.00  0.00    +0.105 C 
ATOM     35  C19 UNL     1       1.738  11.055 -13.111  0.00  0.00    +0.026 C 
ATOM     36  C20 UNL     1       0.836   9.879 -11.128  0.00  0.00    +0.026 C 
ENDBRANCH   3  34
TORSDOF 9
ENDMDL
