MODEL 1
REMARK VINA RESULT:    -5.356      0.000      0.000
REMARK INTER + INTRA:          -9.719
REMARK INTER:                  -8.174
REMARK INTRA:                  -1.545
REMARK UNBOUND:                -1.545
REMARK  Name = /tmp/tmpg_uo6o2a/6N2J_candidate_0017.pdb
REMARK  9 active torsions:
REMARK  status: ('A' for Active; 'I' for Inactive)
REMARK    1  A    between atoms: C3_3  and  C15_20
REMARK    2  A    between atoms: C6_6  and  C7_7
REMARK    3  A    between atoms: C7_7  and  C8_8
REMARK    4  A    between atoms: C8_8  and  C9_9
REMARK    5  A    between atoms: N5_22  and  C16_23
REMARK    6  A    between atoms: C16_23  and  C17_24
REMARK    7  A    between atoms: C16_23  and  C20_29
REMARK    8  A    between atoms: C17_24  and  C18_25
REMARK    9  A    between atoms: C18_25  and  C19_26
REMARK                            x       y       z     vdW  Elec       q    Type
REMARK                         _______ _______ _______ _____ _____    ______ ____
ROOT
ATOM      1  C1  UNL     1       8.731   4.972  -3.035  0.00  0.00    -0.004 A 
ATOM      2  C2  UNL     1       7.659   5.318  -3.853  0.00  0.00    +0.004 A 
ATOM      3  C3  UNL     1       6.757   6.298  -3.434  0.00  0.00    +0.055 A 
ATOM      4  C4  UNL     1       6.930   6.931  -2.203  0.00  0.00    +0.004 A 
ATOM      5  C5  UNL     1       8.002   6.582  -1.388  0.00  0.00    -0.004 A 
ATOM      6  C6  UNL     1       8.901   5.597  -1.800  0.00  0.00    -0.022 A 
ENDROOT
BRANCH   3   7
ATOM      7  C15 UNL     1       5.627   6.644  -4.318  0.00  0.00    +0.265 C 
ATOM      8  O2  UNL     1       4.846   7.546  -4.037  0.00  0.00    -0.268 OA
ATOM      9  N5  UNL     1       5.519   5.880  -5.460  0.00  0.00    -0.192 NA
BRANCH   9  10
ATOM     10  C16 UNL     1       4.464   6.156  -6.410  0.00  0.00    +0.199 C 
BRANCH  10  11
ATOM     11  C20 UNL     1       3.232   5.282  -6.247  0.00  0.00    +0.384 C 
ATOM     12  O5  UNL     1       2.108   5.727  -6.034  0.00  0.00    -0.244 OA
ATOM     13  O6  UNL     1       3.479   3.963  -6.436  0.00  0.00    -0.244 OA
ENDBRANCH  10  11
BRANCH  10  14
ATOM     14  C17 UNL     1       4.988   5.907  -7.813  0.00  0.00    +0.045 C 
BRANCH  14  15
ATOM     15  C18 UNL     1       5.780   7.090  -8.324  0.00  0.00    +0.116 C 
BRANCH  15  16
ATOM     16  C19 UNL     1       6.152   6.852  -9.752  0.00  0.00    +0.365 C 
ATOM     17  O3  UNL     1       6.886   5.953 -10.130  0.00  0.00    -0.246 OA
ATOM     18  O4  UNL     1       5.565   7.769 -10.554  0.00  0.00    -0.246 OA
ENDBRANCH  15  16
ENDBRANCH  14  15
ENDBRANCH  10  14
ENDBRANCH   9  10
ENDBRANCH   3   7
BRANCH   6  19
ATOM     19  C7  UNL     1      10.061   5.239  -0.934  0.00  0.00    +0.031 C 
BRANCH  19  20
ATOM     20  C8  UNL     1       9.631   4.279   0.154  0.00  0.00    +0.033 C 
BRANCH  20  21
ATOM     21  C9  UNL     1       9.781   2.868  -0.262  0.00  0.00    +0.005 A 
ATOM     22  C10 UNL     1      10.963   2.155  -0.342  0.00  0.00    +0.097 A 
ATOM     23  N1  UNL     1      10.678   0.879  -0.747  0.00  0.00    -0.225 NA
ATOM     24  C11 UNL     1       9.329   0.750  -0.932  0.00  0.00    +0.170 A 
ATOM     25  C12 UNL     1       8.750   1.965  -0.636  0.00  0.00    +0.091 A 
ATOM     26  C13 UNL     1       7.316   2.084  -0.754  0.00  0.00    +0.284 A 
ATOM     27  O1  UNL     1       6.710   3.125  -0.525  0.00  0.00    -0.265 OA
ATOM     28  N2  UNL     1       6.720   0.897  -1.160  0.00  0.00    -0.172 NA
ATOM     29  C14 UNL     1       7.409  -0.286  -1.436  0.00  0.00    +0.261 A 
ATOM     30  N3  UNL     1       8.714  -0.389  -1.330  0.00  0.00    -0.192 NA
ATOM     31  N4  UNL     1       6.621  -1.348  -1.829  0.00  0.00    -0.086 NA
ENDBRANCH  20  21
ENDBRANCH  19  20
ENDBRANCH   6  19
TORSDOF 9
ENDMDL
