MODEL 1
REMARK VINA RESULT:    -6.848      0.000      0.000
REMARK INTER + INTRA:          -9.832
REMARK INTER:                  -8.850
REMARK INTRA:                  -0.982
REMARK UNBOUND:                -0.982
REMARK  Name = /tmp/tmpaf9z5683/6N2J_candidate_0079.pdb
REMARK  5 active torsions:
REMARK  status: ('A' for Active; 'I' for Inactive)
REMARK    1  A    between atoms: C2_2  and  C3_3
REMARK    2  A    between atoms: C13_17  and  C14_18
REMARK    3  A    between atoms: C20_26  and  O5_29
REMARK    4  A    between atoms: O5_29  and  C23_30
REMARK    5  A    between atoms: C26_35  and  N4_38
REMARK                            x       y       z     vdW  Elec       q    Type
REMARK                         _______ _______ _______ _____ _____    ______ ____
ROOT
ATOM      1  C3  UNL     1      21.491  -7.219 -28.983  0.00  0.00    -0.021 A 
ATOM      2  C4  UNL     1      22.583  -6.424 -29.264  0.00  0.00    +0.016 A 
ATOM      3  C5  UNL     1      22.657  -5.023 -29.809  0.00  0.00    +0.137 C 
ATOM      4  N1  UNL     1      24.101  -4.793 -29.860  0.00  0.00    -0.290 N 
ATOM      5  C6  UNL     1      24.810  -5.890 -29.410  0.00  0.00    +0.080 A 
ATOM      6  C7  UNL     1      26.146  -5.890 -29.368  0.00  0.00    +0.017 A 
ATOM      7  C8  UNL     1      26.854  -4.701 -29.816  0.00  0.00    +0.021 A 
ATOM      8  C9  UNL     1      26.167  -3.632 -30.256  0.00  0.00    +0.076 A 
ATOM      9  C10 UNL     1      24.677  -3.628 -30.296  0.00  0.00    +0.260 A 
ATOM     10  O1  UNL     1      24.053  -2.650 -30.688  0.00  0.00    -0.267 OA
ATOM     11  C11 UNL     1      26.845  -2.394 -30.696  0.00  0.00    +0.240 C 
ATOM     12  O2  UNL     1      28.180  -2.640 -31.151  0.00  0.00    -0.441 OA
ATOM     13  C12 UNL     1      28.984  -3.408 -30.367  0.00  0.00    +0.349 C 
ATOM     14  O3  UNL     1      30.177  -3.134 -30.253  0.00  0.00    -0.247 OA
ATOM     15  C13 UNL     1      28.354  -4.683 -29.770  0.00  0.00    +0.233 C 
ATOM     16  O4  UNL     1      28.769  -4.768 -28.414  0.00  0.00    -0.210 OA
ATOM     17  C16 UNL     1      23.859  -6.923 -29.034  0.00  0.00    +0.095 A 
ATOM     18  N2  UNL     1      24.155  -8.139 -28.559  0.00  0.00    -0.244 NA
ATOM     19  C17 UNL     1      23.099  -8.929 -28.290  0.00  0.00    +0.081 A 
ATOM     20  C18 UNL     1      21.749  -8.512 -28.485  0.00  0.00    +0.017 A 
ATOM     21  C19 UNL     1      20.704  -9.394 -28.183  0.00  0.00    +0.039 A 
ATOM     22  C20 UNL     1      20.985 -10.673 -27.715  0.00  0.00    +0.150 A 
ATOM     23  C21 UNL     1      22.291 -11.084 -27.497  0.00  0.00    +0.039 A 
ATOM     24  C22 UNL     1      23.330 -10.206 -27.796  0.00  0.00    +0.022 A 
ENDROOT
BRANCH   1  26
ATOM     25  C1  UNL     1      19.696  -7.002 -30.658  0.00  0.00    +0.005 C 
ATOM     26  C2  UNL     1      20.103  -6.725 -29.230  0.00  0.00    +0.026 C 
ENDBRANCH   1  26
BRANCH  15  27
ATOM     27  C14 UNL     1      28.939  -5.832 -30.587  0.00  0.00    +0.046 C 
ATOM     28  C15 UNL     1      29.846  -6.762 -29.814  0.00  0.00    +0.004 C 
ENDBRANCH  15  27
BRANCH  22  29
ATOM     29  O5  UNL     1      19.949 -11.533 -27.350  0.00  0.00    -0.410 OA
BRANCH  29  30
ATOM     30  C23 UNL     1      18.849 -11.472 -28.200  0.00  0.00    +0.409 C 
ATOM     31  O6  UNL     1      18.815 -11.923 -29.340  0.00  0.00    -0.226 OA
ATOM     32  N3  UNL     1      17.779 -10.833 -27.608  0.00  0.00    -0.246 N 
ATOM     33  C24 UNL     1      16.522 -10.839 -28.315  0.00  0.00    +0.098 C 
ATOM     34  C25 UNL     1      15.687  -9.597 -28.085  0.00  0.00    +0.038 C 
ATOM     35  C26 UNL     1      16.097  -8.811 -26.854  0.00  0.00    +0.061 C 
ATOM     36  C27 UNL     1      16.584  -9.718 -25.748  0.00  0.00    +0.038 C 
ATOM     37  C28 UNL     1      17.798 -10.501 -26.200  0.00  0.00    +0.098 C 
BRANCH  35  38
ATOM     38  N4  UNL     1      15.085  -7.890 -26.364  0.00  0.00    -0.274 NA
ATOM     39  C29 UNL     1      13.814  -8.591 -26.255  0.00  0.00    +0.072 C 
ATOM     40  C30 UNL     1      12.711  -7.621 -25.881  0.00  0.00    +0.017 C 
ATOM     41  C31 UNL     1      13.056  -6.790 -24.662  0.00  0.00    +0.003 C 
ATOM     42  C32 UNL     1      14.381  -7.195 -24.054  0.00  0.00    +0.017 C 
ATOM     43  C33 UNL     1      15.482  -7.292 -25.094  0.00  0.00    +0.072 C 
ENDBRANCH  35  38
ENDBRANCH  29  30
ENDBRANCH  22  29
TORSDOF 5
ENDMDL
