MODEL 1
REMARK VINA RESULT:    -5.400      0.000      0.000
REMARK INTER + INTRA:          -6.882
REMARK INTER:                  -6.347
REMARK INTRA:                  -0.535
REMARK UNBOUND:                -0.535
REMARK  Name = /tmp/tmpbu473n7z/6N2J_candidate_0046.pdb
REMARK  3 active torsions:
REMARK  status: ('A' for Active; 'I' for Inactive)
REMARK    1  A    between atoms: C11_13  and  S1_18
REMARK    2  A    between atoms: C12_15  and  C13_16
REMARK    3  A    between atoms: S1_18  and  C14_19
REMARK                            x       y       z     vdW  Elec       q    Type
REMARK                         _______ _______ _______ _____ _____    ______ ____
ROOT
ATOM      1  C1  UNL     1       2.856  -6.521 -25.753  0.00  0.00    +0.034 C 
ATOM      2  C2  UNL     1       3.942  -5.565 -25.336  0.00  0.00    +0.133 C 
ATOM      3  C3  UNL     1       3.604  -4.590 -24.217  0.00  0.00    +0.121 C 
ATOM      4  C4  UNL     1       5.009  -4.234 -23.744  0.00  0.00    +0.049 C 
ATOM      5  C5  UNL     1       5.091  -3.724 -22.316  0.00  0.00    +0.025 C 
ATOM      6  C6  UNL     1       4.559  -2.314 -22.129  0.00  0.00    +0.092 C 
ATOM      7  N1  UNL     1       4.191  -1.715 -23.411  0.00  0.00    -0.292 N 
ATOM      8  C7  UNL     1       5.275  -1.773 -24.382  0.00  0.00    +0.092 C 
ATOM      9  C8  UNL     1       5.633  -3.214 -24.695  0.00  0.00    +0.025 C 
ATOM     10  C9  UNL     1       3.812  -0.373 -23.192  0.00  0.00    +0.148 A 
ATOM     11  N2  UNL     1       4.558   0.620 -23.733  0.00  0.00    -0.232 NA
ATOM     12  C10 UNL     1       4.163   1.902 -23.507  0.00  0.00    +0.084 A 
ATOM     13  C11 UNL     1       3.031   2.214 -22.758  0.00  0.00    +0.124 A 
ATOM     14  N3  UNL     1       2.253   1.239 -22.237  0.00  0.00    -0.237 NA
ATOM     15  C12 UNL     1       2.656  -0.044 -22.461  0.00  0.00    +0.124 A 
ATOM     16  C19 UNL     1       5.022   2.961 -24.111  0.00  0.00    +0.054 C 
ATOM     17  C20 UNL     1       5.752  -5.547 -23.896  0.00  0.00    +0.144 C 
ATOM     18  O2  UNL     1       5.139  -6.260 -24.980  0.00  0.00    -0.355 OA
ATOM     19  N6  UNL     1       2.828  -5.246 -23.165  0.00  0.00    -0.130 NA
ENDROOT
BRANCH  15  20
ATOM     20  C13 UNL     1       1.755  -1.128 -21.953  0.00  0.00    +0.230 C 
ATOM     21  O1  UNL     1       1.636  -1.035 -20.539  0.00  0.00    -0.213 OA
ENDBRANCH  15  20
BRANCH  13  22
ATOM     22  S1  UNL     1       2.525   3.898 -22.457  0.00  0.00    -0.066 S 
BRANCH  22  23
ATOM     23  C14 UNL     1       2.711   3.991 -20.678  0.00  0.00    +0.046 A 
ATOM     24  C15 UNL     1       1.767   4.552 -19.803  0.00  0.00    +0.098 A 
ATOM     25  C16 UNL     1       2.046   4.550 -18.428  0.00  0.00    +0.181 A 
ATOM     26  N4  UNL     1       3.190   4.017 -17.923  0.00  0.00    -0.225 NA
ATOM     27  C17 UNL     1       4.076   3.488 -18.794  0.00  0.00    +0.101 A 
ATOM     28  C18 UNL     1       3.883   3.446 -20.159  0.00  0.00    +0.028 A 
ATOM     29  N5  UNL     1       1.116   5.104 -17.521  0.00  0.00    -0.106 NA
ATOM     30 CL1  UNL     1       0.273   5.216 -20.391  0.00  0.00    -0.079 Cl
ENDBRANCH  22  23
ENDBRANCH  13  22
TORSDOF 3
ENDMDL
