MODEL 1
REMARK VINA RESULT:    -6.924      0.000      0.000
REMARK INTER + INTRA:          -9.558
REMARK INTER:                  -8.543
REMARK INTRA:                  -1.015
REMARK UNBOUND:                -1.015
REMARK  Name = /tmp/tmphg6i20lh/6N2J_candidate_0089.pdb
REMARK  4 active torsions:
REMARK  status: ('A' for Active; 'I' for Inactive)
REMARK    1  A    between atoms: C7_10  and  O2_12
REMARK    2  A    between atoms: O2_12  and  C9_13
REMARK    3  A    between atoms: C17_22  and  N3_23
REMARK    4  A    between atoms: N4_26  and  C19_27
REMARK                            x       y       z     vdW  Elec       q    Type
REMARK                         _______ _______ _______ _____ _____    ______ ____
ROOT
ATOM      1  C9  UNL     1      11.644  14.802 -11.460  0.00  0.00    +0.145 A 
ATOM      2  C10 UNL     1      12.743  15.489 -10.939  0.00  0.00    +0.036 A 
ATOM      3  C11 UNL     1      13.764  15.850 -11.800  0.00  0.00    +0.020 A 
ATOM      4  C12 UNL     1      13.677  15.507 -13.156  0.00  0.00    +0.135 A 
ATOM      5  C13 UNL     1      12.617  14.802 -13.690  0.00  0.00    +0.040 A 
ATOM      6  C14 UNL     1      11.592  14.439 -12.818  0.00  0.00    +0.041 A 
ATOM      7  O3  UNL     1      14.777  15.924 -13.889  0.00  0.00    -0.477 OA
ATOM      8  C15 UNL     1      15.613  16.701 -12.952  0.00  0.00    +0.192 C 
ATOM      9  C16 UNL     1      15.022  16.589 -11.548  0.00  0.00    +0.091 C 
ATOM     10  C17 UNL     1      16.345  15.949 -11.877  0.00  0.00    +0.145 C 
ENDROOT
BRANCH  10  11
ATOM     11  N3  UNL     1      17.555  16.443 -11.322  0.00  0.00    -0.185 NA
ATOM     12  C18 UNL     1      18.711  15.675 -11.293  0.00  0.00    +0.344 C 
ATOM     13  O4  UNL     1      18.769  14.530 -11.736  0.00  0.00    -0.249 OA
ATOM     14  N4  UNL     1      19.760  16.370 -10.709  0.00  0.00    -0.159 NA
BRANCH  14  15
ATOM     15  C19 UNL     1      21.067  15.904 -10.511  0.00  0.00    +0.105 A 
ATOM     16  C20 UNL     1      22.046  15.967 -11.502  0.00  0.00    +0.051 A 
ATOM     17  C21 UNL     1      23.325  15.485 -11.241  0.00  0.00    +0.169 A 
ATOM     18  C22 UNL     1      23.633  14.941  -9.999  0.00  0.00    +0.170 A 
ATOM     19  C23 UNL     1      22.669  14.870  -9.002  0.00  0.00    +0.063 A 
ATOM     20  C24 UNL     1      21.391  15.353  -9.267  0.00  0.00    +0.158 A 
ATOM     21  F1  UNL     1      20.462  15.280  -8.303  0.00  0.00    -0.203 F 
ATOM     22  F2  UNL     1      24.867  14.478  -9.756  0.00  0.00    -0.202 F 
ATOM     23  F3  UNL     1      24.260  15.544 -12.198  0.00  0.00    -0.202 F 
ENDBRANCH  14  15
ENDBRANCH  10  11
BRANCH   1  24
ATOM     24  O2  UNL     1      10.681  14.406 -10.557  0.00  0.00    -0.454 OA
BRANCH  24  34
ATOM     25  C1  UNL     1       8.329  13.122 -11.466  0.00  0.00    +0.042 C 
ATOM     26  C2  UNL     1       7.238  12.958 -12.496  0.00  0.00    +0.092 C 
ATOM     27  C3  UNL     1       5.915  13.443 -11.964  0.00  0.00    +0.247 C 
ATOM     28  O1  UNL     1       4.880  12.823 -12.197  0.00  0.00    -0.273 OA
ATOM     29  N1  UNL     1       5.960  14.627 -11.268  0.00  0.00    -0.161 NA
ATOM     30  C4  UNL     1       7.150  15.231 -10.839  0.00  0.00    +0.153 A 
ATOM     31  N2  UNL     1       7.081  16.477 -10.327  0.00  0.00    -0.227 NA
ATOM     32  C5  UNL     1       8.237  17.035  -9.903  0.00  0.00    +0.103 A 
ATOM     33  C6  UNL     1       9.469  16.411  -9.964  0.00  0.00    +0.058 A 
ATOM     34  C7  UNL     1       9.513  15.133 -10.514  0.00  0.00    +0.146 A 
ATOM     35  C8  UNL     1       8.339  14.518 -10.942  0.00  0.00    +0.046 A 
ENDBRANCH  24  34
ENDBRANCH   1  24
TORSDOF 4
ENDMDL
