MODEL 1
REMARK VINA RESULT:    -6.309      0.000      0.000
REMARK INTER + INTRA:          -7.709
REMARK INTER:                  -7.046
REMARK INTRA:                  -0.663
REMARK UNBOUND:                -0.663
REMARK  Name = /tmp/tmpcaaly7m7/6N2J_candidate_0012.pdb
REMARK  2 active torsions:
REMARK  status: ('A' for Active; 'I' for Inactive)
REMARK    1  A    between atoms: C9_12  and  C10_14
REMARK    2  A    between atoms: C22_28  and  C24_32
REMARK                            x       y       z     vdW  Elec       q    Type
REMARK                         _______ _______ _______ _____ _____    ______ ____
ROOT
ATOM      1  C10 UNL     1       5.470   6.757  -8.289  0.00  0.00    +0.136 A 
ATOM      2  N5  UNL     1       5.871   5.574  -7.779  0.00  0.00    -0.076 NA
ATOM      3  O1  UNL     1       4.951   5.221  -6.809  0.00  0.00    -0.358 OA
ATOM      4  C11 UNL     1       3.999   6.175  -6.747  0.00  0.00    +0.153 A 
ATOM      5  C12 UNL     1       4.261   7.163  -7.661  0.00  0.00    +0.033 A 
ATOM      6  C13 UNL     1       3.383   8.339  -7.823  0.00  0.00    +0.031 C 
ATOM      7  C14 UNL     1       2.471   8.510  -6.610  0.00  0.00    +0.006 C 
ATOM      8  C15 UNL     1       1.873   7.203  -6.087  0.00  0.00    +0.012 C 
ATOM      9  C16 UNL     1       2.882   6.080  -5.773  0.00  0.00    +0.073 C 
ATOM     10  C17 UNL     1       2.152   4.752  -6.034  0.00  0.00    +0.012 C 
ATOM     11  C18 UNL     1       1.197   4.355  -4.922  0.00  0.00    +0.006 C 
ATOM     12  C19 UNL     1       1.936   4.147  -3.612  0.00  0.00    +0.033 C 
ATOM     13  C20 UNL     1       2.883   5.268  -3.375  0.00  0.00    +0.006 A 
ATOM     14  C21 UNL     1       3.345   6.163  -4.325  0.00  0.00    -0.002 A 
ATOM     15  C22 UNL     1       4.254   7.107  -3.715  0.00  0.00    +0.088 A 
ATOM     16  C23 UNL     1       4.437   6.876  -2.363  0.00  0.00    +0.127 A 
ATOM     17  S1  UNL     1       3.517   5.537  -1.827  0.00  0.00    -0.073 S 
ATOM     18  N6  UNL     1       5.220   7.573  -1.501  0.00  0.00    -0.120 NA
ENDROOT
BRANCH   1  30
ATOM     19  C1  UNL     1       6.863  12.254  -8.082  0.00  0.00    +0.023 C 
ATOM     20  C2  UNL     1       6.197  11.398  -9.134  0.00  0.00    +0.093 C 
ATOM     21  C3  UNL     1       5.149  12.192  -9.912  0.00  0.00    +0.108 C 
ATOM     22  N1  UNL     1       5.649  13.220 -10.824  0.00  0.00    -0.215 NA
ATOM     23  C4  UNL     1       7.011  12.935 -11.270  0.00  0.00    +0.110 C 
ATOM     24  C5  UNL     1       7.365  11.455 -11.319  0.00  0.00    +0.112 C 
ATOM     25  N2  UNL     1       7.214  10.830 -10.013  0.00  0.00    -0.277 N 
ATOM     26  C6  UNL     1       7.053   9.451 -10.146  0.00  0.00    +0.220 A 
ATOM     27  N3  UNL     1       7.615   8.832 -11.193  0.00  0.00    -0.212 NA
ATOM     28  C7  UNL     1       7.467   7.497 -11.272  0.00  0.00    +0.103 A 
ATOM     29  C8  UNL     1       6.787   6.734 -10.360  0.00  0.00    +0.042 A 
ATOM     30  C9  UNL     1       6.241   7.449  -9.323  0.00  0.00    +0.106 A 
ATOM     31  N4  UNL     1       6.367   8.790  -9.202  0.00  0.00    -0.212 NA
ENDBRANCH   1  30
BRANCH  15  32
ATOM     32  C24 UNL     1       4.911   8.193  -4.385  0.00  0.00    +0.102 C 
ATOM     33  N7  UNL     1       5.463   9.079  -4.891  0.00  0.00    -0.191 NA
ENDBRANCH  15  32
TORSDOF 2
ENDMDL
