MODEL 1
REMARK VINA RESULT:    -4.878      0.000      0.000
REMARK INTER + INTRA:          -9.357
REMARK INTER:                  -7.444
REMARK INTRA:                  -1.912
REMARK UNBOUND:                -1.912
REMARK  Name = /tmp/tmpdfrlghli/6N2J_candidate_0056.pdb
REMARK  9 active torsions:
REMARK  status: ('A' for Active; 'I' for Inactive)
REMARK    1  A    between atoms: C5_5  and  C15_22
REMARK    2  A    between atoms: C7_8  and  C8_10
REMARK    3  A    between atoms: C8_10  and  C9_11
REMARK    4  A    between atoms: C8_10  and  N2_15
REMARK    5  A    between atoms: C13_16  and  C14_18
REMARK    6  A    between atoms: N3_24  and  C16_25
REMARK    7  A    between atoms: C16_25  and  C17_26
REMARK    8  A    between atoms: C16_25  and  C22_33
REMARK    9  A    between atoms: C17_26  and  C18_27
REMARK                            x       y       z     vdW  Elec       q    Type
REMARK                         _______ _______ _______ _____ _____    ______ ____
ROOT
ATOM      1  C1  UNL     1       8.251  15.349  -6.377  0.00  0.00    +0.000 C 
ATOM      2  C2  UNL     1       6.767  15.489  -6.406  0.00  0.00    +0.004 C 
ATOM      3  C3  UNL     1       6.068  15.720  -7.725  0.00  0.00    +0.022 C 
ATOM      4  C4  UNL     1       5.928  14.402  -7.036  0.00  0.00    +0.029 C 
ATOM      5  C5  UNL     1       6.525  13.334  -7.915  0.00  0.00    +0.154 C 
ATOM      6  N1  UNL     1       6.987  14.067  -9.089  0.00  0.00    -0.272 N 
ATOM      7  C6  UNL     1       6.763  15.500  -9.033  0.00  0.00    +0.094 C 
ATOM      8  C7  UNL     1       7.818  13.453  -9.992  0.00  0.00    +0.246 C 
ATOM      9  O1  UNL     1       8.169  12.280  -9.862  0.00  0.00    -0.273 OA
ATOM     10  C23 UNL     1       6.195  16.170  -5.215  0.00  0.00    +0.000 C 
ENDROOT
BRANCH   5  11
ATOM     11  C15 UNL     1       5.441  12.336  -8.329  0.00  0.00    +0.260 C 
ATOM     12  O3  UNL     1       4.424  12.627  -8.955  0.00  0.00    -0.272 OA
ATOM     13  N3  UNL     1       5.729  11.070  -7.870  0.00  0.00    -0.190 NA
BRANCH  13  14
ATOM     14  C16 UNL     1       4.867   9.938  -8.097  0.00  0.00    +0.186 C 
BRANCH  14  15
ATOM     15  C22 UNL     1       4.877   8.961  -7.004  0.00  0.00    +0.094 C 
ATOM     16  N5  UNL     1       4.909   8.226  -6.105  0.00  0.00    -0.194 NA
ENDBRANCH  14  15
BRANCH  14  17
ATOM     17  C17 UNL     1       5.114   9.258  -9.426  0.00  0.00    +0.046 C 
BRANCH  17  18
ATOM     18  C18 UNL     1       6.456   8.562  -9.446  0.00  0.00    +0.083 C 
ATOM     19  C19 UNL     1       7.285   9.063 -10.617  0.00  0.00    +0.033 C 
ATOM     20  C20 UNL     1       8.058   7.843 -11.083  0.00  0.00    +0.116 C 
ATOM     21  N4  UNL     1       7.260   6.728 -10.658  0.00  0.00    -0.205 NA
ATOM     22  C21 UNL     1       6.285   7.097  -9.749  0.00  0.00    +0.241 C 
ATOM     23  O4  UNL     1       5.446   6.371  -9.238  0.00  0.00    -0.273 OA
ENDBRANCH  17  18
ENDBRANCH  14  17
ENDBRANCH  13  14
ENDBRANCH   5  11
BRANCH   8  24
ATOM     24  C8  UNL     1       8.255  14.330 -11.168  0.00  0.00    +0.171 C 
BRANCH  24  25
ATOM     25  C9  UNL     1       7.529  13.991 -12.466  0.00  0.00    +0.027 C 
ATOM     26  C10 UNL     1       6.146  13.445 -12.175  0.00  0.00    +0.002 C 
ATOM     27  C11 UNL     1       8.284  12.978 -13.301  0.00  0.00    +0.002 C 
ATOM     28  C12 UNL     1       7.345  15.249 -13.293  0.00  0.00    +0.002 C 
ENDBRANCH  24  25
BRANCH  24  29
ATOM     29  N2  UNL     1       9.694  14.265 -11.286  0.00  0.00    -0.191 NA
ATOM     30  C13 UNL     1      10.435  15.426 -11.156  0.00  0.00    +0.337 C 
ATOM     31  O2  UNL     1       9.900  16.528 -11.005  0.00  0.00    -0.264 OA
BRANCH  30  32
ATOM     32  C14 UNL     1      11.942  15.202 -11.293  0.00  0.00    +0.471 C 
ATOM     33  F1  UNL     1      12.246  14.080 -12.006  0.00  0.00    -0.162 F 
ATOM     34  F2  UNL     1      12.584  16.232 -11.911  0.00  0.00    -0.162 F 
ATOM     35  F3  UNL     1      12.542  15.054 -10.076  0.00  0.00    -0.162 F 
ENDBRANCH  30  32
ENDBRANCH  24  29
ENDBRANCH   8  24
TORSDOF 9
ENDMDL
