MODEL 1
REMARK VINA RESULT:    -6.889      0.000      0.000
REMARK INTER + INTRA:         -11.863
REMARK INTER:                 -10.514
REMARK INTRA:                  -1.349
REMARK UNBOUND:                -1.349
REMARK  Name = /tmp/tmppi9rvblc/6N2J_candidate_0034.pdb
REMARK  9 active torsions:
REMARK  status: ('A' for Active; 'I' for Inactive)
REMARK    1  A    between atoms: C7_7  and  O14_67
REMARK    2  A    between atoms: C18_19  and  O13_62
REMARK    3  A    between atoms: C25_27  and  C35_44
REMARK    4  A    between atoms: C35_44  and  C37_46
REMARK    5  A    between atoms: C37_46  and  C38_47
REMARK    6  A    between atoms: C41_50  and  O10_55
REMARK    7  A    between atoms: C42_51  and  O9_53
REMARK    8  A    between atoms: O10_55  and  C45_56
REMARK    9  A    between atoms: C45_56  and  C46_57
REMARK                            x       y       z     vdW  Elec       q    Type
REMARK                         _______ _______ _______ _____ _____    ______ ____
ROOT
ATOM      1  C1  UNL     1       2.624  -7.549 -21.491  0.00  0.00    +0.006 C 
ATOM      2  C2  UNL     1       3.073  -6.473 -20.534  0.00  0.00    +0.062 C 
ATOM      3  C3  UNL     1       2.484  -6.655 -19.158  0.00  0.00    +0.008 C 
ATOM      4  C4  UNL     1       1.361  -5.699 -18.824  0.00  0.00    +0.030 C 
ATOM      5  C5  UNL     1       1.392  -4.414 -19.624  0.00  0.00    +0.121 C 
ATOM      6  C6  UNL     1       0.915  -3.249 -18.796  0.00  0.00    +0.063 C 
ATOM      7  C7  UNL     1      -0.573  -3.299 -18.530  0.00  0.00    +0.136 C 
ATOM      8  C8  UNL     1      -1.039  -2.173 -17.666  0.00  0.00    -0.017 C 
ATOM      9  C9  UNL     1      -1.726  -1.122 -18.133  0.00  0.00    -0.006 C 
ATOM     10  C10 UNL     1      -2.100   0.035 -17.379  0.00  0.00    -0.001 C 
ATOM     11  C11 UNL     1      -2.676   1.080 -17.975  0.00  0.00    -0.000 C 
ATOM     12  C12 UNL     1      -2.839   2.334 -17.307  0.00  0.00    -0.005 C 
ATOM     13  C13 UNL     1      -3.216   3.418 -17.988  0.00  0.00    -0.026 C 
ATOM     14  C14 UNL     1      -3.162   4.828 -17.524  0.00  0.00    +0.022 C 
ATOM     15  C15 UNL     1      -2.307   5.671 -18.452  0.00  0.00    +0.012 C 
ATOM     16  C16 UNL     1      -0.807   5.564 -18.282  0.00  0.00    +0.061 C 
ATOM     17  C17 UNL     1      -0.034   6.445 -19.232  0.00  0.00    +0.180 C 
ATOM     18  O1  UNL     1       1.022   6.971 -18.864  0.00  0.00    -0.293 OA
ATOM     19  C18 UNL     1      -0.531   6.683 -20.649  0.00  0.00    +0.206 C 
ATOM     20  C19 UNL     1      -0.639   5.450 -21.529  0.00  0.00    +0.204 C 
ATOM     21  C20 UNL     1       0.568   4.567 -21.665  0.00  0.00    -0.015 C 
ATOM     22  C21 UNL     1       0.484   3.232 -21.606  0.00  0.00    -0.025 C 
ATOM     23  C22 UNL     1       1.578   2.238 -21.743  0.00  0.00    +0.079 C 
ATOM     24  C23 UNL     1       1.490   1.550 -23.089  0.00  0.00    +0.158 C 
ATOM     25  O2  UNL     1       0.504   0.918 -23.462  0.00  0.00    -0.296 OA
ATOM     26  C24 UNL     1       2.694   1.742 -23.969  0.00  0.00    +0.108 C 
ATOM     27  C25 UNL     1       2.821   0.595 -24.949  0.00  0.00    +0.176 C 
ATOM     28  O3  UNL     1       4.032  -0.093 -24.618  0.00  0.00    -0.451 OA
ATOM     29  C26 UNL     1       3.861  -1.448 -24.620  0.00  0.00    +0.335 C 
ATOM     30  O4  UNL     1       2.820  -2.024 -24.910  0.00  0.00    -0.248 OA
ATOM     31  C27 UNL     1       5.175  -2.130 -24.258  0.00  0.00    +0.175 C 
ATOM     32  C28 UNL     1       6.065  -2.233 -25.481  0.00  0.00    +0.031 C 
ATOM     33  C29 UNL     1       5.714  -3.361 -26.431  0.00  0.00    +0.004 C 
ATOM     34  C30 UNL     1       4.829  -4.428 -25.823  0.00  0.00    +0.022 C 
ATOM     35  C31 UNL     1       5.110  -4.634 -24.351  0.00  0.00    +0.094 C 
ATOM     36  N1  UNL     1       4.984  -3.405 -23.594  0.00  0.00    -0.265 N 
ATOM     37  C32 UNL     1       4.685  -3.388 -22.243  0.00  0.00    +0.289 C 
ATOM     38  O5  UNL     1       4.587  -2.360 -21.585  0.00  0.00    -0.267 OA
ATOM     39  C33 UNL     1       4.500  -4.746 -21.580  0.00  0.00    +0.279 C 
ATOM     40  O6  UNL     1       5.459  -5.517 -21.537  0.00  0.00    -0.281 OA
ATOM     41  C34 UNL     1       3.090  -5.049 -21.084  0.00  0.00    +0.279 C 
ATOM     42  O7  UNL     1       2.713  -4.130 -20.066  0.00  0.00    -0.329 OA
ATOM     43  O8  UNL     1       2.240  -4.949 -22.221  0.00  0.00    -0.187 OA
ATOM     44  C47 UNL     1       1.480   1.202 -20.647  0.00  0.00    +0.012 C 
ATOM     45  C48 UNL     1       1.863   5.257 -21.926  0.00  0.00    +0.029 C 
ATOM     46  O12 UNL     1      -1.827   4.719 -21.287  0.00  0.00    -0.216 OA
ATOM     47  C50 UNL     1      -0.259   4.162 -18.387  0.00  0.00    +0.008 C 
ATOM     48  C51 UNL     1      -2.792   5.020 -16.072  0.00  0.00    +0.005 C 
ATOM     49  C52 UNL     1      -0.652  -2.287 -16.230  0.00  0.00    +0.029 C 
ENDROOT
BRANCH  27  50
ATOM     50  C35 UNL     1       2.912   1.144 -26.367  0.00  0.00    +0.041 C 
ATOM     51  C36 UNL     1       4.165   0.643 -27.050  0.00  0.00    +0.004 C 
BRANCH  50  52
ATOM     52  C37 UNL     1       2.917   2.659 -26.397  0.00  0.00    +0.004 C 
BRANCH  52  53
ATOM     53  C38 UNL     1       4.212   3.240 -26.918  0.00  0.00    +0.003 C 
ATOM     54  C39 UNL     1       4.932   4.090 -25.891  0.00  0.00    +0.003 C 
ATOM     55  C40 UNL     1       4.835   5.571 -26.180  0.00  0.00    +0.032 C 
ATOM     56  C41 UNL     1       5.298   5.952 -27.574  0.00  0.00    +0.142 C 
ATOM     57  C42 UNL     1       5.265   4.775 -28.549  0.00  0.00    +0.142 C 
ATOM     58  C43 UNL     1       4.055   3.902 -28.272  0.00  0.00    +0.032 C 
BRANCH  57  59
ATOM     59  O9  UNL     1       5.209   5.264 -29.883  0.00  0.00    -0.351 OA
ATOM     60  C44 UNL     1       4.119   6.172 -29.970  0.00  0.00    +0.174 C 
ENDBRANCH  57  59
BRANCH  56  61
ATOM     61  O10 UNL     1       6.608   6.500 -27.447  0.00  0.00    -0.351 OA
BRANCH  61  62
ATOM     62  C45 UNL     1       6.540   7.924 -27.470  0.00  0.00    +0.178 C 
BRANCH  62  63
ATOM     63  C46 UNL     1       7.829   8.499 -28.017  0.00  0.00    +0.214 C 
ATOM     64  O11 UNL     1       8.241   7.708 -29.122  0.00  0.00    -0.218 OA
ENDBRANCH  62  63
ENDBRANCH  61  62
ENDBRANCH  56  61
ENDBRANCH  52  53
ENDBRANCH  50  52
ENDBRANCH  27  50
BRANCH  19  65
ATOM     65  O13 UNL     1      -1.679   7.507 -20.724  0.00  0.00    -0.343 OA
ATOM     66  C49 UNL     1      -1.331   8.665 -21.473  0.00  0.00    +0.175 C 
ENDBRANCH  19  65
BRANCH   7  67
ATOM     67  O14 UNL     1      -1.377  -3.559 -19.666  0.00  0.00    -0.349 OA
ATOM     68  C53 UNL     1      -2.331  -4.589 -19.415  0.00  0.00    +0.174 C 
ENDBRANCH   7  67
TORSDOF 9
ENDMDL
