MODEL 1
REMARK VINA RESULT:    -6.375      0.000      0.000
REMARK INTER + INTRA:          -9.730
REMARK INTER:                  -8.611
REMARK INTRA:                  -1.118
REMARK UNBOUND:                -1.118
REMARK  Name = /tmp/tmpa4hqngzn/6N2J_candidate_0039.pdb
REMARK  6 active torsions:
REMARK  status: ('A' for Active; 'I' for Inactive)
REMARK    1  A    between atoms: C2_3  and  C3_5
REMARK    2  A    between atoms: C6_9  and  O2_11
REMARK    3  A    between atoms: O2_11  and  C8_12
REMARK    4  A    between atoms: C11_15  and  N3_18
REMARK    5  A    between atoms: N4_21  and  C15_22
REMARK    6  A    between atoms: C17_24  and  C21_29
REMARK                            x       y       z     vdW  Elec       q    Type
REMARK                         _______ _______ _______ _____ _____    ______ ____
ROOT
ATOM      1  C8  UNL     1      17.108  -9.665 -27.248  0.00  0.00    +0.148 A 
ATOM      2  C9  UNL     1      18.357 -10.100 -26.809  0.00  0.00    +0.068 A 
ATOM      3  C10 UNL     1      19.502  -9.637 -27.449  0.00  0.00    +0.158 A 
ATOM      4  C11 UNL     1      19.419  -8.728 -28.506  0.00  0.00    +0.103 A 
ATOM      5  C12 UNL     1      18.164  -8.279 -28.915  0.00  0.00    +0.022 A 
ATOM      6  C13 UNL     1      17.009  -8.734 -28.281  0.00  0.00    +0.039 A 
ATOM      7  F4  UNL     1      20.699 -10.074 -27.030  0.00  0.00    -0.203 F 
ENDROOT
BRANCH   4   8
ATOM      8  N3  UNL     1      20.610  -8.302 -29.111  0.00  0.00    -0.158 NA
ATOM      9  C14 UNL     1      21.454  -7.288 -28.668  0.00  0.00    +0.348 C 
ATOM     10  O3  UNL     1      21.277  -6.617 -27.654  0.00  0.00    -0.248 OA
ATOM     11  N4  UNL     1      22.535  -7.146 -29.538  0.00  0.00    -0.161 NA
BRANCH  11  12
ATOM     12  C15 UNL     1      23.587  -6.230 -29.421  0.00  0.00    +0.075 A 
ATOM     13  C16 UNL     1      23.421  -4.988 -30.029  0.00  0.00    +0.021 A 
ATOM     14  C17 UNL     1      24.418  -4.007 -29.967  0.00  0.00    +0.083 A 
ATOM     15  C18 UNL     1      25.596  -4.301 -29.276  0.00  0.00    +0.062 A 
ATOM     16  C19 UNL     1      25.767  -5.543 -28.665  0.00  0.00    +0.013 A 
ATOM     17  C20 UNL     1      24.766  -6.506 -28.738  0.00  0.00    +0.018 A 
ATOM     18 CL1  UNL     1      26.890  -3.173 -29.134  0.00  0.00    -0.082 Cl
BRANCH  14  19
ATOM     19  C21 UNL     1      24.183  -2.691 -30.640  0.00  0.00    +0.419 C 
ATOM     20  F1  UNL     1      24.260  -1.636 -29.783  0.00  0.00    -0.166 F 
ATOM     21  F2  UNL     1      25.090  -2.424 -31.623  0.00  0.00    -0.166 F 
ATOM     22  F3  UNL     1      22.965  -2.613 -31.241  0.00  0.00    -0.166 F 
ENDBRANCH  14  19
ENDBRANCH  11  12
ENDBRANCH   4   8
BRANCH   1  23
ATOM     23  O2  UNL     1      15.942 -10.025 -26.614  0.00  0.00    -0.453 OA
BRANCH  23  28
ATOM     24  C3  UNL     1      13.309  -7.597 -25.838  0.00  0.00    +0.139 A 
ATOM     25  N2  UNL     1      13.876  -6.878 -24.833  0.00  0.00    -0.239 NA
ATOM     26  C4  UNL     1      15.119  -7.248 -24.455  0.00  0.00    +0.102 A 
ATOM     27  C5  UNL     1      15.822  -8.299 -25.020  0.00  0.00    +0.058 A 
ATOM     28  C6  UNL     1      15.199  -9.025 -26.028  0.00  0.00    +0.149 A 
ATOM     29  C7  UNL     1      13.929  -8.664 -26.468  0.00  0.00    +0.061 A 
BRANCH  24  32
ATOM     30  C1  UNL     1       9.650  -7.983 -26.620  0.00  0.00    +0.139 C 
ATOM     31  N1  UNL     1      11.003  -8.229 -26.208  0.00  0.00    -0.198 NA
ATOM     32  C2  UNL     1      11.941  -7.224 -26.293  0.00  0.00    +0.283 C 
ATOM     33  O1  UNL     1      11.701  -6.093 -26.709  0.00  0.00    -0.267 OA
ENDBRANCH  24  32
ENDBRANCH  23  28
ENDBRANCH   1  23
TORSDOF 6
ENDMDL
