MODEL 1
REMARK VINA RESULT:    -6.366      0.000      0.000
REMARK INTER + INTRA:          -9.741
REMARK INTER:                  -8.599
REMARK INTRA:                  -1.142
REMARK UNBOUND:                -1.142
REMARK  Name = /tmp/tmp9o7og57l/6N2J_candidate_0025.pdb
REMARK  6 active torsions:
REMARK  status: ('A' for Active; 'I' for Inactive)
REMARK    1  A    between atoms: C7_10  and  O1_32
REMARK    2  A    between atoms: C10_14  and  C14_19
REMARK    3  A    between atoms: C15_20  and  C20_27
REMARK    4  A    between atoms: O1_32  and  C21_33
REMARK    5  A    between atoms: C21_33  and  C22_34
REMARK    6  A    between atoms: C27_40  and  C28_42
REMARK                            x       y       z     vdW  Elec       q    Type
REMARK                         _______ _______ _______ _____ _____    ______ ____
ROOT
ATOM      1  C1  UNL     1      18.878  -9.774 -25.677  0.00  0.00    +0.023 C 
ATOM      2  C2  UNL     1      17.512  -9.935 -26.304  0.00  0.00    +0.094 C 
ATOM      3  C3  UNL     1      17.527  -9.440 -27.747  0.00  0.00    +0.113 C 
ATOM      4  N1  UNL     1      18.067 -10.393 -28.698  0.00  0.00    -0.273 N 
ATOM      5  C4  UNL     1      17.888 -11.808 -28.417  0.00  0.00    +0.115 C 
ATOM      6  C5  UNL     1      16.801 -12.052 -27.378  0.00  0.00    +0.114 C 
ATOM      7  N2  UNL     1      17.071 -11.329 -26.133  0.00  0.00    -0.291 N 
ATOM      8  C6  UNL     1      15.895 -11.366 -25.338  0.00  0.00    +0.138 A 
ATOM      9  N3  UNL     1      15.222 -10.222 -25.137  0.00  0.00    -0.179 NA
ATOM     10  C7  UNL     1      14.117 -10.282 -24.391  0.00  0.00    +0.321 A 
ATOM     11  N4  UNL     1      13.621 -11.387 -23.821  0.00  0.00    -0.192 NA
ATOM     12  C8  UNL     1      14.298 -12.528 -24.002  0.00  0.00    +0.116 A 
ATOM     13  C9  UNL     1      13.848 -13.719 -23.425  0.00  0.00    +0.160 A 
ATOM     14  C10 UNL     1      14.510 -14.950 -23.571  0.00  0.00    +0.057 A 
ATOM     15  C11 UNL     1      15.681 -14.966 -24.331  0.00  0.00    +0.061 A 
ATOM     16  C12 UNL     1      16.149 -13.795 -24.916  0.00  0.00    +0.016 A 
ATOM     17  C13 UNL     1      15.466 -12.575 -24.767  0.00  0.00    +0.053 A 
ATOM     18 CL1  UNL     1      16.574 -16.409 -24.637  0.00  0.00    -0.082 Cl
ATOM     19  F4  UNL     1      12.710 -13.691 -22.706  0.00  0.00    -0.203 F 
ATOM     20  C27 UNL     1      18.743  -9.908 -29.793  0.00  0.00    +0.249 C 
ATOM     21  O2  UNL     1      18.893  -8.711 -30.015  0.00  0.00    -0.270 OA
ENDROOT
BRANCH  14  22
ATOM     22  C14 UNL     1      13.976 -16.145 -22.914  0.00  0.00    +0.089 A 
ATOM     23  C15 UNL     1      14.425 -16.651 -21.690  0.00  0.00    +0.085 A 
ATOM     24  C16 UNL     1      13.831 -17.841 -21.233  0.00  0.00    -0.014 A 
ATOM     25  C17 UNL     1      12.819 -18.447 -21.973  0.00  0.00    +0.033 A 
ATOM     26  C18 UNL     1      12.415 -17.870 -23.168  0.00  0.00    +0.169 A 
ATOM     27  N5  UNL     1      12.988 -16.737 -23.639  0.00  0.00    -0.227 NA
ATOM     28  N6  UNL     1      11.385 -18.501 -23.895  0.00  0.00    -0.107 NA
ATOM     29  C19 UNL     1      14.255 -18.509 -19.966  0.00  0.00    +0.031 C 
BRANCH  23  30
ATOM     30  C20 UNL     1      15.525 -15.989 -20.906  0.00  0.00    +0.420 C 
ATOM     31  F1  UNL     1      16.722 -16.005 -21.558  0.00  0.00    -0.166 F 
ATOM     32  F2  UNL     1      15.260 -14.678 -20.651  0.00  0.00    -0.166 F 
ATOM     33  F3  UNL     1      15.781 -16.559 -19.695  0.00  0.00    -0.166 F 
ENDBRANCH  23  30
ENDBRANCH  14  22
BRANCH  20  34
ATOM     34  C28 UNL     1      19.277 -10.960 -30.692  0.00  0.00    +0.058 C 
ATOM     35  C29 UNL     1      19.032 -10.854 -31.998  0.00  0.00    +0.005 C 
ENDBRANCH  20  34
BRANCH  10  36
ATOM     36  O1  UNL     1      13.457  -9.082 -24.241  0.00  0.00    -0.445 OA
BRANCH  36  37
ATOM     37  C21 UNL     1      12.490  -8.952 -25.274  0.00  0.00    +0.224 C 
BRANCH  37  38
ATOM     38  C22 UNL     1      12.966  -7.930 -26.302  0.00  0.00    +0.102 C 
ATOM     39  C23 UNL     1      12.120  -6.675 -26.201  0.00  0.00    +0.021 C 
ATOM     40  C24 UNL     1      11.085  -6.796 -27.304  0.00  0.00    +0.019 C 
ATOM     41  C25 UNL     1      11.441  -8.058 -28.062  0.00  0.00    +0.072 C 
ATOM     42  N7  UNL     1      12.830  -8.315 -27.706  0.00  0.00    -0.270 NA
ATOM     43  C26 UNL     1      13.114  -9.725 -27.902  0.00  0.00    +0.090 C 
ENDBRANCH  37  38
ENDBRANCH  36  37
ENDBRANCH  10  36
TORSDOF 6
ENDMDL
