MODEL 1
REMARK VINA RESULT:    -6.015      0.000      0.000
REMARK INTER + INTRA:         -10.202
REMARK INTER:                  -8.476
REMARK INTRA:                  -1.726
REMARK UNBOUND:                -1.726
REMARK  Name = /tmp/tmph6qxj31g/6N2J_candidate_0100.pdb
REMARK  7 active torsions:
REMARK  status: ('A' for Active; 'I' for Inactive)
REMARK    1  A    between atoms: C5_6  and  C6_7
REMARK    2  A    between atoms: C6_7  and  O1_8
REMARK    3  A    between atoms: O1_8  and  C7_9
REMARK    4  A    between atoms: N3_15  and  C13_17
REMARK    5  A    between atoms: C26_34  and  C28_36
REMARK    6  A    between atoms: C28_36  and  C29_37
REMARK    7  A    between atoms: C30_39  and  C31_41
REMARK                            x       y       z     vdW  Elec       q    Type
REMARK                         _______ _______ _______ _____ _____    ______ ____
ROOT
ATOM      1  C7  UNL     1      17.299 -14.168 -25.614  0.00  0.00    +0.321 A 
ATOM      2  N2  UNL     1      17.579 -15.082 -24.674  0.00  0.00    -0.197 NA
ATOM      3  C8  UNL     1      16.694 -15.171 -23.660  0.00  0.00    +0.082 A 
ATOM      4  C9  UNL     1      15.564 -14.370 -23.586  0.00  0.00    +0.027 A 
ATOM      5  C10 UNL     1      14.629 -14.454 -22.421  0.00  0.00    +0.052 C 
ATOM      6  C11 UNL     1      15.290 -15.090 -21.213  0.00  0.00    +0.096 C 
ATOM      7  N3  UNL     1      15.917 -16.354 -21.609  0.00  0.00    -0.302 N 
ATOM      8  C12 UNL     1      17.022 -16.147 -22.555  0.00  0.00    +0.137 C 
ATOM      9  C23 UNL     1      15.359 -13.470 -24.621  0.00  0.00    +0.134 A 
ATOM     10  N4  UNL     1      16.240 -13.349 -25.627  0.00  0.00    -0.180 NA
ATOM     11  N5  UNL     1      14.208 -12.651 -24.604  0.00  0.00    -0.290 N 
ATOM     12  C24 UNL     1      13.062 -13.484 -24.986  0.00  0.00    +0.114 C 
ATOM     13  C25 UNL     1      11.773 -12.664 -24.949  0.00  0.00    +0.115 C 
ATOM     14  N6  UNL     1      11.871 -11.397 -25.674  0.00  0.00    -0.271 N 
ATOM     15  C26 UNL     1      13.124 -10.657 -25.540  0.00  0.00    +0.111 C 
ATOM     16  C27 UNL     1      14.377 -11.526 -25.522  0.00  0.00    +0.113 C 
ATOM     17  C30 UNL     1      10.751 -10.677 -26.055  0.00  0.00    +0.277 C 
ATOM     18  O2  UNL     1      10.820  -9.486 -26.362  0.00  0.00    -0.267 OA
ENDROOT
BRANCH   7  19
ATOM     19  C13 UNL     1      16.314 -17.035 -20.428  0.00  0.00    +0.049 A 
ATOM     20  C14 UNL     1      17.606 -16.797 -19.911  0.00  0.00    +0.015 A 
ATOM     21  C15 UNL     1      18.033 -17.334 -18.707  0.00  0.00    +0.001 A 
ATOM     22  C16 UNL     1      17.161 -18.128 -17.985  0.00  0.00    +0.000 A 
ATOM     23  C17 UNL     1      15.889 -18.422 -18.470  0.00  0.00    +0.002 A 
ATOM     24  C18 UNL     1      15.418 -17.916 -19.714  0.00  0.00    +0.024 A 
ATOM     25  C19 UNL     1      14.115 -18.369 -20.101  0.00  0.00    +0.059 A 
ATOM     26  C20 UNL     1      13.347 -19.198 -19.275  0.00  0.00    +0.011 A 
ATOM     27  C21 UNL     1      13.832 -19.622 -18.050  0.00  0.00    +0.001 A 
ATOM     28  C22 UNL     1      15.108 -19.245 -17.663  0.00  0.00    +0.000 A 
ATOM     29 CL1  UNL     1      13.371 -18.031 -21.627  0.00  0.00    -0.082 Cl
ENDBRANCH   7  19
BRANCH  17  30
ATOM     30  C31 UNL     1       9.440 -11.375 -26.050  0.00  0.00    +0.193 C 
ATOM     31  C32 UNL     1       8.802 -11.651 -27.189  0.00  0.00    +0.037 C 
ATOM     32  F1  UNL     1       8.739 -11.268 -24.903  0.00  0.00    -0.199 F 
ENDBRANCH  17  30
BRANCH   1  33
ATOM     33  O1  UNL     1      18.189 -13.965 -26.643  0.00  0.00    -0.445 OA
BRANCH  33  34
ATOM     34  C6  UNL     1      17.658 -12.995 -27.531  0.00  0.00    +0.224 C 
BRANCH  34  40
ATOM     35  C1  UNL     1      17.400  -9.916 -27.085  0.00  0.00    +0.090 C 
ATOM     36  N1  UNL     1      18.479 -10.824 -26.715  0.00  0.00    -0.270 NA
ATOM     37  C2  UNL     1      19.719 -10.057 -26.757  0.00  0.00    +0.072 C 
ATOM     38  C3  UNL     1      20.798 -11.075 -27.068  0.00  0.00    +0.019 C 
ATOM     39  C4  UNL     1      20.074 -12.255 -27.690  0.00  0.00    +0.021 C 
ATOM     40  C5  UNL     1      18.619 -11.835 -27.767  0.00  0.00    +0.102 C 
ENDBRANCH  34  40
ENDBRANCH  33  34
ENDBRANCH   1  33
BRANCH  15  41
ATOM     41  C28 UNL     1      13.138  -9.582 -24.470  0.00  0.00    +0.127 C 
BRANCH  41  42
ATOM     42  C29 UNL     1      14.256  -8.647 -24.591  0.00  0.00    +0.075 C 
ATOM     43  N7  UNL     1      15.144  -7.905 -24.694  0.00  0.00    -0.196 NA
ENDBRANCH  41  42
ENDBRANCH  15  41
TORSDOF 7
ENDMDL
