MODEL 1
REMARK VINA RESULT:    -5.136      0.000      0.000
REMARK INTER + INTRA:          -7.279
REMARK INTER:                  -6.637
REMARK INTRA:                  -0.642
REMARK UNBOUND:                -0.642
REMARK  Name = /tmp/tmpdbiajzam/6N2J_candidate_0083.pdb
REMARK  5 active torsions:
REMARK  status: ('A' for Active; 'I' for Inactive)
REMARK    1  A    between atoms: C4_4  and  C6_6
REMARK    2  A    between atoms: C6_6  and  C7_7
REMARK    3  A    between atoms: C6_6  and  N2_10
REMARK    4  A    between atoms: C7_7  and  C8_8
REMARK    5  A    between atoms: C10_12  and  C12_15
REMARK                            x       y       z     vdW  Elec       q    Type
REMARK                         _______ _______ _______ _____ _____    ______ ____
ROOT
ATOM      1  N2  UNL     1      18.585 -10.012 -26.786  0.00  0.00    -0.250 N 
ATOM      2  C9  UNL     1      17.224 -10.059 -26.811  0.00  0.00    +0.098 A 
ATOM      3  C10 UNL     1      16.805  -9.707 -25.545  0.00  0.00    +0.057 A 
ATOM      4  C11 UNL     1      18.007  -9.490 -24.837  0.00  0.00    +0.123 A 
ATOM      5  N3  UNL     1      19.097  -9.690 -25.585  0.00  0.00    -0.168 NA
ENDROOT
BRANCH   3   6
ATOM      6  C12 UNL     1      15.425  -9.616 -25.138  0.00  0.00    +0.089 A 
ATOM      7  C13 UNL     1      14.810  -8.389 -24.883  0.00  0.00    +0.055 A 
ATOM      8  C14 UNL     1      15.163  -7.013 -24.899  0.00  0.00    +0.025 A 
ATOM      9  C15 UNL     1      14.054  -6.284 -24.531  0.00  0.00    +0.101 A 
ATOM     10  N4  UNL     1      13.042  -7.168 -24.293  0.00  0.00    -0.225 NA
ATOM     11  C16 UNL     1      13.476  -8.448 -24.500  0.00  0.00    +0.166 A 
ATOM     12  N5  UNL     1      12.731  -9.557 -24.353  0.00  0.00    -0.205 NA
ATOM     13  C17 UNL     1      13.428 -10.671 -24.626  0.00  0.00    +0.200 A 
ATOM     14  N6  UNL     1      14.716 -10.762 -25.005  0.00  0.00    -0.224 NA
ENDBRANCH   3   6
BRANCH   1  15
ATOM     15  C6  UNL     1      19.443 -10.331 -27.900  0.00  0.00    +0.120 C 
BRANCH  15  19
ATOM     16  C1  UNL     1      20.951  -6.944 -28.605  0.00  0.00    +0.000 C 
ATOM     17  C2  UNL     1      19.629  -6.865 -29.352  0.00  0.00    +0.000 C 
ATOM     18  C3  UNL     1      18.896  -8.165 -29.086  0.00  0.00    +0.002 C 
ATOM     19  C4  UNL     1      19.978  -9.133 -28.662  0.00  0.00    +0.024 C 
ATOM     20  C5  UNL     1      20.975  -8.288 -27.902  0.00  0.00    +0.002 C 
ENDBRANCH  15  19
BRANCH  15  21
ATOM     21  C7  UNL     1      20.547 -11.271 -27.482  0.00  0.00    +0.130 C 
BRANCH  21  22
ATOM     22  C8  UNL     1      20.035 -12.634 -27.409  0.00  0.00    +0.075 C 
ATOM     23  N1  UNL     1      19.629 -13.719 -27.372  0.00  0.00    -0.196 NA
ENDBRANCH  21  22
ENDBRANCH  15  21
ENDBRANCH   1  15
TORSDOF 5
ENDMDL
