MODEL 1
REMARK VINA RESULT:    -6.427      0.000      0.000
REMARK INTER + INTRA:          -9.664
REMARK INTER:                  -7.930
REMARK INTRA:                  -1.734
REMARK UNBOUND:                -1.734
REMARK  Name = /tmp/tmp2znmxqbh/6N2J_candidate_0030.pdb
REMARK  4 active torsions:
REMARK  status: ('A' for Active; 'I' for Inactive)
REMARK    1  A    between atoms: C3_3  and  N2_11
REMARK    2  A    between atoms: C4_4  and  C7_8
REMARK    3  A    between atoms: C11_14  and  C27_37
REMARK    4  A    between atoms: C23_31  and  C24_33
REMARK                            x       y       z     vdW  Elec       q    Type
REMARK                         _______ _______ _______ _____ _____    ______ ____
ROOT
ATOM      1  N2  UNL     1       1.729   0.986 -20.904  0.00  0.00    -0.257 N 
ATOM      2  C10 UNL     1       2.419   0.822 -22.127  0.00  0.00    +0.151 A 
ATOM      3  N3  UNL     1       2.640   1.918 -22.904  0.00  0.00    -0.227 NA
ATOM      4  C11 UNL     1       3.289   1.788 -24.089  0.00  0.00    +0.099 A 
ATOM      5  C12 UNL     1       3.750   0.560 -24.526  0.00  0.00    +0.076 A 
ATOM      6  C13 UNL     1       3.529  -0.539 -23.708  0.00  0.00    +0.017 A 
ATOM      7  C14 UNL     1       2.867  -0.445 -22.483  0.00  0.00    +0.050 A 
ATOM      8  C15 UNL     1       2.651  -1.621 -21.605  0.00  0.00    +0.070 A 
ATOM      9  C16 UNL     1       1.971  -1.444 -20.445  0.00  0.00    +0.125 A 
ATOM     10  C17 UNL     1       1.493  -0.061 -20.029  0.00  0.00    +0.281 A 
ATOM     11  O1  UNL     1       0.904   0.093 -18.957  0.00  0.00    -0.265 OA
ATOM     12  N4  UNL     1       1.679  -2.540 -19.624  0.00  0.00    -0.251 N 
ATOM     13  C18 UNL     1       2.098  -3.836 -19.883  0.00  0.00    +0.249 C 
ATOM     14  O2  UNL     1       1.752  -4.799 -19.193  0.00  0.00    -0.273 OA
ATOM     15  C19 UNL     1       3.094  -4.007 -21.013  0.00  0.00    +0.170 C 
ATOM     16  N5  UNL     1       3.105  -2.894 -21.996  0.00  0.00    -0.297 N 
ATOM     17  C20 UNL     1       4.054  -3.156 -23.091  0.00  0.00    +0.113 C 
ATOM     18  C21 UNL     1       3.749  -4.490 -23.778  0.00  0.00    +0.115 C 
ATOM     19  N6  UNL     1       3.736  -5.566 -22.807  0.00  0.00    -0.272 N 
ATOM     20  C22 UNL     1       2.825  -5.355 -21.689  0.00  0.00    +0.123 C 
ATOM     21  C23 UNL     1       4.890  -6.314 -22.682  0.00  0.00    +0.249 C 
ATOM     22  O3  UNL     1       5.841  -6.203 -23.447  0.00  0.00    -0.270 OA
ATOM     23  C26 UNL     1       0.822  -2.396 -18.470  0.00  0.00    +0.120 C 
ATOM     24 CL1  UNL     1       4.612   0.320 -25.993  0.00  0.00    -0.081 Cl
ENDROOT
BRANCH   4  25
ATOM     25  C27 UNL     1       3.434   3.037 -24.833  0.00  0.00    +0.085 A 
ATOM     26  C28 UNL     1       2.419   3.535 -25.658  0.00  0.00    +0.199 A 
ATOM     27  C29 UNL     1       2.569   4.717 -26.378  0.00  0.00    +0.042 A 
ATOM     28  C30 UNL     1       3.759   5.432 -26.288  0.00  0.00    +0.006 A 
ATOM     29  C31 UNL     1       4.789   4.964 -25.478  0.00  0.00    +0.030 A 
ATOM     30  C32 UNL     1       4.621   3.779 -24.764  0.00  0.00    +0.145 A 
ATOM     31  F1  UNL     1       5.634   3.346 -23.997  0.00  0.00    -0.204 F 
ATOM     32  O4  UNL     1       1.227   2.874 -25.770  0.00  0.00    -0.286 OA
ENDBRANCH   4  25
BRANCH   1  35
ATOM     33  C1  UNL     1      -0.920   1.932 -21.749  0.00  0.00    +0.033 C 
ATOM     34  C2  UNL     1       0.048   2.780 -20.994  0.00  0.00    -0.003 A 
ATOM     35  C3  UNL     1       1.299   2.307 -20.569  0.00  0.00    +0.078 A 
ATOM     36  C4  UNL     1       2.118   3.193 -19.842  0.00  0.00    +0.074 A 
ATOM     37  N1  UNL     1       1.744   4.464 -19.531  0.00  0.00    -0.247 NA
ATOM     38  C5  UNL     1       0.527   4.869 -19.949  0.00  0.00    +0.098 A 
ATOM     39  C6  UNL     1      -0.345   4.077 -20.676  0.00  0.00    +0.018 A 
BRANCH  36  40
ATOM     40  C7  UNL     1       3.507   2.790 -19.443  0.00  0.00    +0.042 C 
ATOM     41  C8  UNL     1       4.516   3.331 -20.429  0.00  0.00    +0.006 C 
ATOM     42  C9  UNL     1       3.843   3.261 -18.049  0.00  0.00    +0.006 C 
ENDBRANCH  36  40
ENDBRANCH   1  35
BRANCH  21  43
ATOM     43  C24 UNL     1       4.877  -7.262 -21.542  0.00  0.00    +0.058 C 
ATOM     44  C25 UNL     1       4.780  -8.564 -21.814  0.00  0.00    +0.005 C 
ENDBRANCH  21  43
TORSDOF 4
ENDMDL
