MODEL 1
REMARK VINA RESULT:    -4.776      0.000      0.000
REMARK INTER + INTRA:          -6.466
REMARK INTER:                  -6.172
REMARK INTRA:                  -0.294
REMARK UNBOUND:                -0.294
REMARK  Name = /tmp/tmp3wun_j_u/6N2J_candidate_0070.pdb
REMARK  5 active torsions:
REMARK  status: ('A' for Active; 'I' for Inactive)
REMARK    1  A    between atoms: C4_5  and  C9_11
REMARK    2  A    between atoms: C6_7  and  O1_8
REMARK    3  A    between atoms: C9_11  and  S1_12
REMARK    4  A    between atoms: S1_12  and  C10_14
REMARK    5  A    between atoms: C14_20  and  O3_23
REMARK                            x       y       z     vdW  Elec       q    Type
REMARK                         _______ _______ _______ _____ _____    ______ ____
ROOT
ATOM      1  S1  UNL     1       7.038  13.028  -9.296  0.00  0.00    +0.107 S 
ATOM      2  O2  UNL     1       7.298  13.282  -7.837  0.00  0.00    -0.248 OA
ENDROOT
BRANCH   1   3
ATOM      3  C10 UNL     1       6.790  11.253  -9.437  0.00  0.00    +0.221 A 
ATOM      4  N2  UNL     1       7.104  10.524 -10.488  0.00  0.00    -0.218 NA
ATOM      5  C11 UNL     1       6.740   9.240 -10.155  0.00  0.00    +0.101 A 
ATOM      6  C12 UNL     1       6.198   9.195  -8.875  0.00  0.00    +0.104 A 
ATOM      7  N3  UNL     1       6.243  10.492  -8.444  0.00  0.00    -0.218 NA
ATOM      8  C13 UNL     1       5.741   8.026  -8.269  0.00  0.00    +0.058 A 
ATOM      9  C14 UNL     1       5.851   6.849  -9.022  0.00  0.00    +0.140 A 
ATOM     10  C15 UNL     1       6.391   6.868 -10.309  0.00  0.00    +0.039 A 
ATOM     11  C16 UNL     1       6.844   8.054 -10.897  0.00  0.00    +0.024 A 
BRANCH   9  12
ATOM     12  O3  UNL     1       5.449   5.620  -8.571  0.00  0.00    -0.471 OA
ATOM     13  C17 UNL     1       5.260   5.618  -7.161  0.00  0.00    +0.252 C 
ENDBRANCH   9  12
ENDBRANCH   1   3
BRANCH   1  14
ATOM     14  C9  UNL     1       8.621  13.045 -10.182  0.00  0.00    +0.145 C 
BRANCH  14  19
ATOM     15  C1  UNL     1       8.101  16.176 -14.947  0.00  0.00    +0.036 C 
ATOM     16  C2  UNL     1       8.301  15.403 -13.696  0.00  0.00    +0.031 A 
ATOM     17  C3  UNL     1       7.242  14.713 -13.139  0.00  0.00    +0.097 A 
ATOM     18  N1  UNL     1       7.330  13.975 -12.012  0.00  0.00    -0.248 NA
ATOM     19  C4  UNL     1       8.542  13.900 -11.409  0.00  0.00    +0.072 A 
ATOM     20  C5  UNL     1       9.672  14.553 -11.897  0.00  0.00    +0.026 A 
ATOM     21  C6  UNL     1       9.526  15.334 -13.044  0.00  0.00    +0.133 A 
ATOM     22  C8  UNL     1      10.995  14.409 -11.224  0.00  0.00    +0.035 C 
BRANCH  21  23
ATOM     23  O1  UNL     1      10.597  15.991 -13.589  0.00  0.00    -0.472 OA
ATOM     24  C7  UNL     1      10.644  17.274 -12.970  0.00  0.00    +0.252 C 
ENDBRANCH  21  23
ENDBRANCH  14  19
ENDBRANCH   1  14
TORSDOF 5
ENDMDL
