MODEL 1
REMARK VINA RESULT:    -7.202      0.000      0.000
REMARK INTER + INTRA:         -11.107
REMARK INTER:                  -9.307
REMARK INTRA:                  -1.800
REMARK UNBOUND:                -1.800
REMARK  Name = /tmp/tmplacbwo44/6N2J_candidate_0001.pdb
REMARK  5 active torsions:
REMARK  status: ('A' for Active; 'I' for Inactive)
REMARK    1  A    between atoms: C2_2  and  C3_3
REMARK    2  A    between atoms: C11_11  and  C13_13
REMARK    3  A    between atoms: C18_19  and  O1_21
REMARK    4  A    between atoms: O1_21  and  C19_22
REMARK    5  A    between atoms: C19_22  and  C20_23
REMARK                            x       y       z     vdW  Elec       q    Type
REMARK                         _______ _______ _______ _____ _____    ______ ____
ROOT
ATOM      1  C13 UNL     1      15.541  -9.405 -26.253  0.00  0.00    +0.113 A 
ATOM      2  C14 UNL     1      16.539  -9.140 -27.186  0.00  0.00    +0.176 A 
ATOM      3  C15 UNL     1      17.508 -10.093 -27.478  0.00  0.00    +0.122 A 
ATOM      4  C16 UNL     1      17.443 -11.324 -26.824  0.00  0.00    +0.105 A 
ATOM      5  C17 UNL     1      18.452 -12.255 -27.141  0.00  0.00    +0.142 A 
ATOM      6  N1  UNL     1      19.433 -11.951 -28.009  0.00  0.00    -0.179 NA
ATOM      7  C18 UNL     1      19.396 -10.745 -28.586  0.00  0.00    +0.321 A 
ATOM      8  N2  UNL     1      18.475  -9.809 -28.361  0.00  0.00    -0.192 NA
ATOM      9  N4  UNL     1      18.489 -13.523 -26.523  0.00  0.00    -0.288 N 
ATOM     10  C27 UNL     1      19.711 -14.256 -26.905  0.00  0.00    +0.110 C 
ATOM     11  C28 UNL     1      19.675 -15.731 -26.481  0.00  0.00    +0.093 C 
ATOM     12  C29 UNL     1      19.408 -15.848 -24.988  0.00  0.00    +0.021 C 
ATOM     13  C30 UNL     1      17.890 -15.877 -24.869  0.00  0.00    +0.021 C 
ATOM     14  C31 UNL     1      17.387 -15.766 -26.303  0.00  0.00    +0.095 C 
ATOM     15  C32 UNL     1      17.245 -14.297 -26.734  0.00  0.00    +0.134 C 
ATOM     16  C33 UNL     1      15.997 -13.701 -26.098  0.00  0.00    +0.228 C 
ATOM     17  O2  UNL     1      16.282 -12.664 -25.171  0.00  0.00    -0.458 OA
ATOM     18  C34 UNL     1      16.398 -11.509 -25.900  0.00  0.00    +0.229 A 
ATOM     19  N5  UNL     1      15.459 -10.588 -25.607  0.00  0.00    -0.209 NA
ATOM     20  N6  UNL     1      18.487 -16.374 -27.068  0.00  0.00    -0.217 NA
ATOM     21  F2  UNL     1      16.574  -7.943 -27.799  0.00  0.00    -0.201 F 
ENDROOT
BRANCH   1  30
ATOM     22  C3  UNL     1      13.060  -8.745 -28.041  0.00  0.00    +0.005 A 
ATOM     23  C4  UNL     1      11.936  -8.330 -28.772  0.00  0.00    +0.136 A 
ATOM     24  C5  UNL     1      11.085  -7.345 -28.302  0.00  0.00    +0.029 A 
ATOM     25  C6  UNL     1      11.358  -6.755 -27.079  0.00  0.00    +0.002 A 
ATOM     26  C7  UNL     1      12.469  -7.135 -26.332  0.00  0.00    +0.003 A 
ATOM     27  C8  UNL     1      12.647  -6.479 -25.120  0.00  0.00    +0.042 A 
ATOM     28  C9  UNL     1      13.725  -6.795 -24.318  0.00  0.00    +0.196 A 
ATOM     29  C10 UNL     1      14.640  -7.754 -24.711  0.00  0.00    +0.044 A 
ATOM     30  C11 UNL     1      14.494  -8.435 -25.932  0.00  0.00    +0.023 A 
ATOM     31  C12 UNL     1      13.375  -8.139 -26.785  0.00  0.00    -0.000 A 
ATOM     32  O3  UNL     1      13.893  -6.152 -23.130  0.00  0.00    -0.287 OA
ATOM     33  F3  UNL     1      11.667  -8.902 -29.955  0.00  0.00    -0.205 F 
BRANCH  22  35
ATOM     34  C1  UNL     1      13.273 -11.178 -28.417  0.00  0.00    +0.005 C 
ATOM     35  C2  UNL     1      13.895  -9.822 -28.661  0.00  0.00    +0.029 C 
ENDBRANCH  22  35
ENDBRANCH   1  30
BRANCH   7  36
ATOM     36  O1  UNL     1      20.384 -10.382 -29.474  0.00  0.00    -0.445 OA
BRANCH  36  37
ATOM     37  C19 UNL     1      21.406  -9.685 -28.776  0.00  0.00    +0.223 C 
BRANCH  37  38
ATOM     38  C20 UNL     1      21.539  -8.252 -29.275  0.00  0.00    +0.089 C 
ATOM     39  C21 UNL     1      20.923  -8.107 -30.652  0.00  0.00    +0.020 C 
ATOM     40  C22 UNL     1      19.952  -6.952 -30.556  0.00  0.00    +0.019 C 
ATOM     41  C23 UNL     1      20.279  -6.268 -29.247  0.00  0.00    +0.072 C 
ATOM     42  N3  UNL     1      20.815  -7.324 -28.389  0.00  0.00    -0.269 NA
ATOM     43  C24 UNL     1      21.819  -6.688 -27.521  0.00  0.00    +0.108 C 
ATOM     44  C25 UNL     1      23.181  -7.244 -27.895  0.00  0.00    +0.178 C 
ATOM     45  C26 UNL     1      22.983  -7.794 -29.286  0.00  0.00    +0.055 C 
ATOM     46  F1  UNL     1      24.086  -6.233 -27.950  0.00  0.00    -0.236 F 
ENDBRANCH  37  38
ENDBRANCH  36  37
ENDBRANCH   7  36
TORSDOF 5
ENDMDL
