MODEL 1
REMARK VINA RESULT:    -3.427      0.000      0.000
REMARK INTER + INTRA:          -3.427
REMARK INTER:                  -3.427
REMARK INTRA:                   0.000
REMARK UNBOUND:                 0.000
REMARK  Name = /tmp/tmp2k008x1m/6N2J_candidate_0007.pdb
REMARK  0 active torsions:
REMARK  status: ('A' for Active; 'I' for Inactive)
REMARK                            x       y       z     vdW  Elec       q    Type
REMARK                         _______ _______ _______ _____ _____    ______ ____
ROOT
ATOM      1  C1  UNL     1       6.450   9.089  -9.331  0.00  0.00    +0.138 A 
ATOM      2  C2  UNL     1       7.171   9.104 -10.450  0.00  0.00    +0.217 A 
ATOM      3  C3  UNL     1       7.599   7.836 -11.079  0.00  0.00    +0.312 A 
ATOM      4  O1  UNL     1       8.264   7.826 -12.110  0.00  0.00    -0.263 OA
ATOM      5  N1  UNL     1       7.188   6.701 -10.412  0.00  0.00    -0.150 NA
ATOM      6  C4  UNL     1       6.437   6.666  -9.247  0.00  0.00    +0.372 A 
ATOM      7  O2  UNL     1       6.103   5.615  -8.702  0.00  0.00    -0.243 OA
ATOM      8  N2  UNL     1       6.090   7.909  -8.742  0.00  0.00    -0.187 NA
ATOM      9  F1  UNL     1       7.539  10.250 -11.050  0.00  0.00    -0.197 F 
ENDROOT
TORSDOF 0
ENDMDL
