MODEL 1
REMARK VINA RESULT:    -6.708      0.000      0.000
REMARK INTER + INTRA:         -10.144
REMARK INTER:                  -9.061
REMARK INTRA:                  -1.084
REMARK UNBOUND:                -1.084
REMARK  Name = /tmp/tmp9clvweh9/6N2J_candidate_0090.pdb
REMARK  6 active torsions:
REMARK  status: ('A' for Active; 'I' for Inactive)
REMARK    1  A    between atoms: C5_8  and  C13_19
REMARK    2  A    between atoms: C6_10  and  O1_11
REMARK    3  A    between atoms: O1_11  and  C7_12
REMARK    4  A    between atoms: C16_22  and  N6_25
REMARK    5  A    between atoms: N6_25  and  S1_26
REMARK    6  A    between atoms: S1_26  and  C19_29
REMARK                            x       y       z     vdW  Elec       q    Type
REMARK                         _______ _______ _______ _____ _____    ______ ____
ROOT
ATOM      1  C13 UNL     1      20.182  -7.701 -28.736  0.00  0.00    +0.038 A 
ATOM      2  C14 UNL     1      20.657  -8.669 -27.842  0.00  0.00    +0.034 A 
ATOM      3  C15 UNL     1      19.802  -9.627 -27.300  0.00  0.00    +0.157 A 
ATOM      4  C16 UNL     1      18.445  -9.637 -27.615  0.00  0.00    +0.118 A 
ATOM      5  C17 UNL     1      17.969  -8.712 -28.539  0.00  0.00    +0.020 A 
ATOM      6  C18 UNL     1      18.823  -7.745 -29.075  0.00  0.00    +0.005 A 
ATOM      7  F2  UNL     1      20.309 -10.540 -26.458  0.00  0.00    -0.203 F 
ENDROOT
BRANCH   1  15
ATOM      8  C1  UNL     1      24.716  -3.307 -30.833  0.00  0.00    +0.054 C 
ATOM      9  C2  UNL     1      23.324  -3.763 -30.717  0.00  0.00    +0.088 A 
ATOM     10  C3  UNL     1      22.729  -4.852 -30.139  0.00  0.00    +0.106 A 
ATOM     11  C4  UNL     1      21.343  -4.734 -30.397  0.00  0.00    +0.191 A 
ATOM     12  N1  UNL     1      21.071  -3.618 -31.073  0.00  0.00    -0.129 NA
ATOM     13  N2  UNL     1      22.283  -3.056 -31.255  0.00  0.00    -0.151 NA
ATOM     14  N3  UNL     1      20.462  -5.666 -29.977  0.00  0.00    -0.206 NA
ATOM     15  C5  UNL     1      21.071  -6.670 -29.285  0.00  0.00    +0.167 A 
ATOM     16  N4  UNL     1      22.409  -6.833 -29.006  0.00  0.00    -0.192 NA
ATOM     17  C6  UNL     1      23.301  -5.906 -29.447  0.00  0.00    +0.230 A 
BRANCH  17  18
ATOM     18  O1  UNL     1      24.650  -6.011 -29.193  0.00  0.00    -0.464 OA
BRANCH  18  19
ATOM     19  C7  UNL     1      24.955  -7.363 -28.869  0.00  0.00    +0.170 C 
ATOM     20  C8  UNL     1      24.862  -7.585 -27.375  0.00  0.00    +0.061 C 
ATOM     21  C9  UNL     1      25.210  -9.024 -27.033  0.00  0.00    +0.076 C 
ATOM     22  N5  UNL     1      26.112  -9.662 -27.986  0.00  0.00    -0.271 NA
ATOM     23  C10 UNL     1      27.060  -8.690 -28.506  0.00  0.00    +0.076 C 
ATOM     24  C11 UNL     1      26.349  -7.672 -29.375  0.00  0.00    +0.061 C 
ATOM     25  C12 UNL     1      26.868 -10.662 -27.252  0.00  0.00    +0.090 C 
ENDBRANCH  18  19
ENDBRANCH  17  18
ENDBRANCH   1  15
BRANCH   4  26
ATOM     26  N6  UNL     1      17.633 -10.696 -27.088  0.00  0.00    -0.094 NA
BRANCH  26  27
ATOM     27  S1  UNL     1      16.917 -10.526 -25.552  0.00  0.00    +0.095 S 
ATOM     28  O2  UNL     1      17.821  -9.777 -24.700  0.00  0.00    -0.148 OA
ATOM     29  O3  UNL     1      16.398 -11.806 -25.121  0.00  0.00    -0.148 OA
BRANCH  27  30
ATOM     30  C19 UNL     1      15.522  -9.509 -25.858  0.00  0.00    +0.155 A 
ATOM     31  C20 UNL     1      14.597  -9.877 -26.827  0.00  0.00    +0.159 A 
ATOM     32  C21 UNL     1      13.482  -9.079 -27.067  0.00  0.00    +0.032 A 
ATOM     33  C22 UNL     1      13.298  -7.915 -26.327  0.00  0.00    +0.014 A 
ATOM     34  C23 UNL     1      14.231  -7.559 -25.349  0.00  0.00    +0.059 A 
ATOM     35  C24 UNL     1      15.348  -8.353 -25.105  0.00  0.00    +0.034 A 
ATOM     36 CL1  UNL     1      13.997  -6.122 -24.443  0.00  0.00    -0.082 Cl
ATOM     37  F1  UNL     1      14.766 -10.985 -27.557  0.00  0.00    -0.203 F 
ENDBRANCH  27  30
ENDBRANCH  26  27
ENDBRANCH   4  26
TORSDOF 6
ENDMDL
