MODEL 1
REMARK VINA RESULT:    -5.887      0.000      0.000
REMARK INTER + INTRA:          -8.963
REMARK INTER:                  -7.264
REMARK INTRA:                  -1.700
REMARK UNBOUND:                -1.700
REMARK  Name = /tmp/tmphsv4avay/6N2J_candidate_0004.pdb
REMARK  4 active torsions:
REMARK  status: ('A' for Active; 'I' for Inactive)
REMARK    1  A    between atoms: N4_12  and  C19_28
REMARK    2  A    between atoms: C9_15  and  C13_20
REMARK    3  A    between atoms: C23_33  and  C24_34
REMARK    4  A    between atoms: C28_38  and  C29_40
REMARK                            x       y       z     vdW  Elec       q    Type
REMARK                         _______ _______ _______ _____ _____    ______ ____
ROOT
ATOM      1  C1  UNL     1      16.659 -16.191 -21.821  0.00  0.00    +0.023 C 
ATOM      2  C2  UNL     1      16.260 -16.043 -23.270  0.00  0.00    +0.094 C 
ATOM      3  C3  UNL     1      15.641 -17.318 -23.826  0.00  0.00    +0.113 C 
ATOM      4  N1  UNL     1      14.240 -17.493 -23.472  0.00  0.00    -0.273 N 
ATOM      5  C4  UNL     1      13.605 -16.460 -22.683  0.00  0.00    +0.115 C 
ATOM      6  C5  UNL     1      13.986 -15.050 -23.116  0.00  0.00    +0.114 C 
ATOM      7  N2  UNL     1      15.402 -14.866 -23.448  0.00  0.00    -0.291 N 
ATOM      8  C6  UNL     1      15.820 -13.913 -24.372  0.00  0.00    +0.139 A 
ATOM      9  N3  UNL     1      16.869 -14.181 -25.091  0.00  0.00    -0.177 NA
ATOM     10  C7  UNL     1      17.370 -13.319 -26.035  0.00  0.00    +0.356 A 
ATOM     11  O1  UNL     1      18.370 -13.641 -26.672  0.00  0.00    -0.244 OA
ATOM     12  N4  UNL     1      16.740 -12.094 -26.229  0.00  0.00    -0.242 N 
ATOM     13  C8  UNL     1      15.597 -11.736 -25.483  0.00  0.00    +0.154 A 
ATOM     14  N5  UNL     1      14.974 -10.548 -25.717  0.00  0.00    -0.225 NA
ATOM     15  C9  UNL     1      13.886 -10.210 -24.975  0.00  0.00    +0.115 A 
ATOM     16  C10 UNL     1      13.391 -11.053 -23.990  0.00  0.00    +0.158 A 
ATOM     17  C11 UNL     1      14.015 -12.268 -23.768  0.00  0.00    +0.037 A 
ATOM     18  C12 UNL     1      15.119 -12.623 -24.535  0.00  0.00    +0.069 A 
ATOM     19  F1  UNL     1      12.306 -10.730 -23.272  0.00  0.00    -0.203 F 
ATOM     20  C28 UNL     1      13.504 -18.615 -23.778  0.00  0.00    +0.249 C 
ATOM     21  O3  UNL     1      12.331 -18.756 -23.444  0.00  0.00    -0.270 OA
ENDROOT
BRANCH  15  22
ATOM     22  C13 UNL     1      13.294  -8.909 -25.282  0.00  0.00    +0.086 A 
ATOM     23  C14 UNL     1      12.167  -8.773 -26.103  0.00  0.00    +0.199 A 
ATOM     24  C15 UNL     1      11.617  -7.528 -26.403  0.00  0.00    +0.042 A 
ATOM     25  C16 UNL     1      12.194  -6.375 -25.881  0.00  0.00    +0.006 A 
ATOM     26  C17 UNL     1      13.315  -6.473 -25.063  0.00  0.00    +0.030 A 
ATOM     27  C18 UNL     1      13.852  -7.727 -24.773  0.00  0.00    +0.145 A 
ATOM     28  F2  UNL     1      14.946  -7.784 -23.998  0.00  0.00    -0.204 F 
ATOM     29  O2  UNL     1      11.543  -9.873 -26.624  0.00  0.00    -0.286 OA
ENDBRANCH  15  22
BRANCH  12  30
ATOM     30  C19 UNL     1      17.201 -11.185 -27.226  0.00  0.00    +0.079 A 
ATOM     31  C20 UNL     1      18.075 -10.132 -26.905  0.00  0.00    -0.003 A 
ATOM     32  C21 UNL     1      18.497  -9.255 -27.901  0.00  0.00    +0.018 A 
ATOM     33  C22 UNL     1      18.038  -9.455 -29.191  0.00  0.00    +0.098 A 
ATOM     34  N6  UNL     1      17.209 -10.458 -29.550  0.00  0.00    -0.247 NA
ATOM     35  C23 UNL     1      16.809 -11.316 -28.572  0.00  0.00    +0.074 A 
ATOM     36  C27 UNL     1      18.632  -9.934 -25.535  0.00  0.00    +0.033 C 
BRANCH  35  37
ATOM     37  C24 UNL     1      15.846 -12.391 -28.983  0.00  0.00    +0.042 C 
ATOM     38  C25 UNL     1      16.275 -13.057 -30.268  0.00  0.00    +0.006 C 
ATOM     39  C26 UNL     1      14.452 -11.828 -29.129  0.00  0.00    +0.006 C 
ENDBRANCH  35  37
ENDBRANCH  12  30
BRANCH  20  40
ATOM     40  C29 UNL     1      14.250 -19.641 -24.546  0.00  0.00    +0.058 C 
ATOM     41  C30 UNL     1      13.763 -20.010 -25.733  0.00  0.00    +0.005 C 
ENDBRANCH  20  40
TORSDOF 4
ENDMDL
