MODEL 1
REMARK VINA RESULT:    -7.019      0.000      0.000
REMARK INTER + INTRA:          -8.004
REMARK INTER:                  -7.840
REMARK INTRA:                  -0.164
REMARK UNBOUND:                -0.164
REMARK  Name = /tmp/tmpjwweevkl/6N2J_candidate_0091.pdb
REMARK  2 active torsions:
REMARK  status: ('A' for Active; 'I' for Inactive)
REMARK    1  A    between atoms: C16_19  and  S1_22
REMARK    2  A    between atoms: S1_22  and  C17_23
REMARK                            x       y       z     vdW  Elec       q    Type
REMARK                         _______ _______ _______ _____ _____    ______ ____
ROOT
ATOM      1  C1  UNL     1      13.835 -12.352 -26.105  0.00  0.00    +0.024 C 
ATOM      2  C2  UNL     1      14.175 -13.554 -25.248  0.00  0.00    +0.094 C 
ATOM      3  N1  UNL     1      14.491 -13.151 -23.898  0.00  0.00    -0.277 N 
ATOM      4  C3  UNL     1      13.457 -12.443 -23.176  0.00  0.00    +0.094 C 
ATOM      5  C4  UNL     1      12.791 -11.396 -24.048  0.00  0.00    +0.024 C 
ATOM      6  C5  UNL     1      13.541 -11.067 -25.339  0.00  0.00    +0.028 C 
ATOM      7  C6  UNL     1      14.859 -10.332 -25.009  0.00  0.00    +0.028 C 
ATOM      8  C7  UNL     1      14.413  -8.906 -24.993  0.00  0.00    -0.025 A 
ATOM      9  C8  UNL     1      15.069  -7.825 -24.434  0.00  0.00    -0.005 A 
ATOM     10  C9  UNL     1      14.456  -6.576 -24.520  0.00  0.00    -0.000 A 
ATOM     11  C10 UNL     1      13.213  -6.426 -25.154  0.00  0.00    -0.000 A 
ATOM     12  C11 UNL     1      12.562  -7.524 -25.716  0.00  0.00    -0.003 A 
ATOM     13  C12 UNL     1      13.179  -8.759 -25.630  0.00  0.00    -0.009 A 
ATOM     14  C13 UNL     1      12.677 -10.073 -26.159  0.00  0.00    +0.114 C 
ATOM     15  N2  UNL     1      12.931 -10.152 -27.595  0.00  0.00    -0.128 NA
ATOM     16  C14 UNL     1      15.014 -14.206 -23.147  0.00  0.00    +0.239 A 
ATOM     17  N3  UNL     1      15.614 -15.221 -23.791  0.00  0.00    -0.209 NA
ATOM     18  C15 UNL     1      16.135 -16.198 -23.015  0.00  0.00    +0.129 A 
ATOM     19  C16 UNL     1      16.075 -16.205 -21.640  0.00  0.00    +0.152 A 
ATOM     20  N4  UNL     1      15.472 -15.178 -21.025  0.00  0.00    -0.137 NA
ATOM     21  N5  UNL     1      14.941 -14.170 -21.793  0.00  0.00    -0.112 NA
ENDROOT
BRANCH  19  22
ATOM     22  S1  UNL     1      16.791 -17.529 -20.705  0.00  0.00    -0.064 S 
BRANCH  22  23
ATOM     23  C17 UNL     1      15.358 -18.189 -19.861  0.00  0.00    +0.046 A 
ATOM     24  C18 UNL     1      15.356 -18.666 -18.543  0.00  0.00    +0.098 A 
ATOM     25  C19 UNL     1      14.154 -19.153 -18.009  0.00  0.00    +0.181 A 
ATOM     26  N6  UNL     1      13.000 -19.168 -18.725  0.00  0.00    -0.225 NA
ATOM     27  C20 UNL     1      13.036 -18.698 -19.990  0.00  0.00    +0.101 A 
ATOM     28  C21 UNL     1      14.173 -18.201 -20.593  0.00  0.00    +0.028 A 
ATOM     29  N7  UNL     1      14.120 -19.644 -16.685  0.00  0.00    -0.106 NA
ATOM     30 CL1  UNL     1      16.802 -18.650 -17.580  0.00  0.00    -0.079 Cl
ENDBRANCH  22  23
ENDBRANCH  19  22
TORSDOF 2
ENDMDL
