MODEL 1
REMARK VINA RESULT:    -5.775      0.000      0.000
REMARK INTER + INTRA:          -8.310
REMARK INTER:                  -7.463
REMARK INTRA:                  -0.847
REMARK UNBOUND:                -0.847
REMARK  Name = /tmp/tmpa0ujqru9/6N2J_candidate_0048.pdb
REMARK  5 active torsions:
REMARK  status: ('A' for Active; 'I' for Inactive)
REMARK    1  A    between atoms: C5_5  and  N2_10
REMARK    2  A    between atoms: N2_10  and  C8_11
REMARK    3  A    between atoms: N3_21  and  C24_35
REMARK    4  A    between atoms: N4_24  and  C16_25
REMARK    5  A    between atoms: C20_29  and  N5_31
REMARK                            x       y       z     vdW  Elec       q    Type
REMARK                         _______ _______ _______ _____ _____    ______ ____
ROOT
ATOM      1  C1  UNL     1      16.905 -14.275 -26.273  0.00  0.00    +0.038 C 
ATOM      2  C2  UNL     1      16.262 -13.060 -25.693  0.00  0.00    +0.051 A 
ATOM      3  C3  UNL     1      15.132 -13.012 -24.958  0.00  0.00    +0.076 A 
ATOM      4  C4  UNL     1      14.533 -11.713 -24.685  0.00  0.00    +0.104 A 
ATOM      5  C5  UNL     1      15.123 -10.546 -25.050  0.00  0.00    +0.141 A 
ATOM      6  N1  UNL     1      16.349 -10.628 -25.697  0.00  0.00    -0.281 N 
ATOM      7  C6  UNL     1      16.965 -11.803 -26.069  0.00  0.00    +0.259 A 
ATOM      8  O1  UNL     1      18.028 -11.847 -26.684  0.00  0.00    -0.267 OA
ATOM      9  C7  UNL     1      17.034  -9.407 -26.056  0.00  0.00    +0.135 C 
ATOM     10  C14 UNL     1      13.204 -11.702 -24.024  0.00  0.00    +0.268 A 
ATOM     11  O2  UNL     1      12.821 -10.789 -23.299  0.00  0.00    -0.267 OA
ATOM     12  N3  UNL     1      12.449 -12.815 -24.329  0.00  0.00    -0.250 N 
ATOM     13  C15 UNL     1      13.027 -14.080 -24.254  0.00  0.00    +0.338 A 
ATOM     14  O3  UNL     1      12.342 -15.054 -23.926  0.00  0.00    -0.246 OA
ATOM     15  N4  UNL     1      14.428 -14.145 -24.502  0.00  0.00    -0.260 N 
ENDROOT
BRANCH  15  16
ATOM     16  C16 UNL     1      15.096 -15.383 -24.144  0.00  0.00    +0.069 A 
ATOM     17  C17 UNL     1      14.996 -16.506 -24.973  0.00  0.00    +0.018 A 
ATOM     18  C18 UNL     1      15.670 -17.690 -24.681  0.00  0.00    +0.003 A 
ATOM     19  C19 UNL     1      16.476 -17.763 -23.550  0.00  0.00    +0.017 A 
ATOM     20  C20 UNL     1      16.610 -16.656 -22.719  0.00  0.00    +0.075 A 
ATOM     21  C21 UNL     1      15.927 -15.479 -23.024  0.00  0.00    +0.034 A 
BRANCH  20  22
ATOM     22  N5  UNL     1      17.413 -16.654 -21.573  0.00  0.00    -0.179 NA
ATOM     23  C22 UNL     1      17.011 -16.968 -20.292  0.00  0.00    +0.246 C 
ATOM     24  O4  UNL     1      15.891 -17.285 -19.912  0.00  0.00    -0.273 OA
ATOM     25  C23 UNL     1      18.171 -16.870 -19.350  0.00  0.00    +0.097 C 
ENDBRANCH  20  22
ENDBRANCH  15  16
BRANCH  12  26
ATOM     26  C24 UNL     1      11.036 -12.735 -24.039  0.00  0.00    +0.093 C 
ATOM     27  C25 UNL     1      10.087 -11.987 -24.935  0.00  0.00    +0.025 C 
ATOM     28  C26 UNL     1      10.023 -13.479 -24.865  0.00  0.00    +0.025 C 
ENDBRANCH  12  26
BRANCH   5  29
ATOM     29  N2  UNL     1      14.575  -9.284 -24.819  0.00  0.00    -0.193 NA
BRANCH  29  30
ATOM     30  C8  UNL     1      13.681  -8.639 -25.709  0.00  0.00    +0.099 A 
ATOM     31  C9  UNL     1      13.063  -7.444 -25.319  0.00  0.00    +0.156 A 
ATOM     32  C10 UNL     1      12.168  -6.782 -26.155  0.00  0.00    +0.037 A 
ATOM     33  C11 UNL     1      11.887  -7.321 -27.404  0.00  0.00    +0.032 A 
ATOM     34  C12 UNL     1      12.492  -8.499 -27.824  0.00  0.00    +0.007 A 
ATOM     35  C13 UNL     1      13.387  -9.151 -26.978  0.00  0.00    +0.019 A 
ATOM     36  I1  UNL     1      10.559  -6.360 -28.653  0.00  0.00    -0.042 I 
ATOM     37  F1  UNL     1      13.337  -6.908 -24.120  0.00  0.00    -0.203 F 
ENDBRANCH  29  30
ENDBRANCH   5  29
TORSDOF 5
ENDMDL
