MODEL 1
REMARK VINA RESULT:    -6.024      0.000      0.000
REMARK INTER + INTRA:         -15.078
REMARK INTER:                 -10.603
REMARK INTRA:                  -4.476
REMARK UNBOUND:                -4.476
REMARK  Name = /tmp/tmpwwuer1qa/6N2J_candidate_0098.pdb
REMARK  13 active torsions:
REMARK  status: ('A' for Active; 'I' for Inactive)
REMARK    1  A    between atoms: C2_2  and  C3_3
REMARK    2  A    between atoms: C2_2  and  O7_83
REMARK    3  A    between atoms: C4_4  and  C15_18
REMARK    4  A    between atoms: C6_6  and  N2_9
REMARK    5  A    between atoms: N3_12  and  C12_15
REMARK    6  A    between atoms: C26_34  and  N8_54
REMARK    7  A    between atoms: N7_46  and  C36_47
REMARK    8  A    between atoms: C36_47  and  C37_48
REMARK    9  A    between atoms: C40_55  and  C41_57
REMARK   10  A    between atoms: C41_57  and  C42_58
REMARK   11  A    between atoms: C41_57  and  N9_63
REMARK   12  A    between atoms: C54_72  and  C55_74
REMARK   13  A    between atoms: C56_75  and  C58_78
REMARK                            x       y       z     vdW  Elec       q    Type
REMARK                         _______ _______ _______ _____ _____    ______ ____
ROOT
ATOM      1  C15 UNL     1       5.027   7.600  -4.585  0.00  0.00    +0.057 A 
ATOM      2  C16 UNL     1       5.372   8.759  -5.268  0.00  0.00    -0.005 A 
ATOM      3  C17 UNL     1       5.863  10.037  -4.690  0.00  0.00    +0.031 C 
ATOM      4  C18 UNL     1       4.840  11.056  -4.223  0.00  0.00    +0.045 C 
ATOM      5  C19 UNL     1       4.047  11.665  -5.368  0.00  0.00    +0.209 C 
ATOM      6  O1  UNL     1       3.008  10.815  -5.842  0.00  0.00    -0.448 OA
ATOM      7  C20 UNL     1       1.788  11.202  -5.370  0.00  0.00    +0.335 C 
ATOM      8  O2  UNL     1       1.596  12.168  -4.643  0.00  0.00    -0.248 OA
ATOM      9  C21 UNL     1       0.696  10.265  -5.828  0.00  0.00    +0.192 C 
ATOM     10  C22 UNL     1       1.093   8.806  -5.865  0.00  0.00    +0.033 C 
ATOM     11  C23 UNL     1       1.235   8.247  -7.263  0.00  0.00    +0.025 C 
ATOM     12  C24 UNL     1       1.622   9.311  -8.268  0.00  0.00    +0.113 C 
ATOM     13  N4  UNL     1       0.755  10.471  -8.221  0.00  0.00    -0.205 N 
ATOM     14  N5  UNL     1       0.038  10.741  -7.040  0.00  0.00    -0.118 NA
ATOM     15  C25 UNL     1       0.436  11.230  -9.348  0.00  0.00    +0.260 C 
ATOM     16  O3  UNL     1      -0.394  12.140  -9.363  0.00  0.00    -0.272 OA
ATOM     17  C26 UNL     1       1.219  10.829 -10.596  0.00  0.00    +0.175 C 
ATOM     18  C27 UNL     1       2.423  11.727 -10.771  0.00  0.00    +0.062 C 
ATOM     19  C28 UNL     1       3.678  11.191 -10.143  0.00  0.00    +0.137 C 
ATOM     20  C29 UNL     1       4.165   9.915 -10.836  0.00  0.00    +0.121 C 
ATOM     21  N6  UNL     1       5.442   9.474 -10.268  0.00  0.00    -0.303 N 
ATOM     22  C30 UNL     1       6.396  10.568 -10.054  0.00  0.00    +0.123 C 
ATOM     23  C31 UNL     1       5.897  11.882 -10.641  0.00  0.00    +0.163 C 
ATOM     24  O4  UNL     1       4.628  12.256 -10.103  0.00  0.00    -0.353 OA
ATOM     25  C32 UNL     1       5.213   8.726  -9.093  0.00  0.00    +0.048 A 
ATOM     26  C33 UNL     1       5.500   9.240  -7.820  0.00  0.00    +0.016 A 
ATOM     27  C34 UNL     1       5.238   8.491  -6.661  0.00  0.00    +0.014 A 
ATOM     28  C35 UNL     1       4.718   7.208  -6.798  0.00  0.00    +0.060 A 
ATOM     29  N7  UNL     1       4.596   6.695  -5.531  0.00  0.00    -0.320 N 
ATOM     30  C38 UNL     1       4.424   6.653  -8.049  0.00  0.00    +0.018 A 
ATOM     31  C39 UNL     1       4.661   7.446  -9.177  0.00  0.00    +0.016 A 
ATOM     32  C61 UNL     1       3.947  10.497  -3.135  0.00  0.00    +0.004 C 
ATOM     33  C62 UNL     1       5.633  12.192  -3.605  0.00  0.00    +0.004 C 
ENDROOT
BRANCH   1  35
ATOM     34  C3  UNL     1       6.221   6.870  -2.488  0.00  0.00    +0.087 A 
ATOM     35  C4  UNL     1       5.078   7.319  -3.150  0.00  0.00    +0.033 A 
ATOM     36  C5  UNL     1       3.921   7.507  -2.388  0.00  0.00    +0.019 A 
ATOM     37  C6  UNL     1       3.871   7.253  -1.019  0.00  0.00    +0.067 A 
ATOM     38  C7  UNL     1       5.077   6.828  -0.473  0.00  0.00    +0.113 A 
ATOM     39  N1  UNL     1       6.228   6.607  -1.154  0.00  0.00    -0.244 NA
BRANCH  37  40
ATOM     40  N2  UNL     1       2.719   7.469  -0.270  0.00  0.00    -0.303 N 
ATOM     41  C8  UNL     1       2.647   8.720   0.484  0.00  0.00    +0.108 C 
ATOM     42  C9  UNL     1       1.752   9.746  -0.219  0.00  0.00    +0.094 C 
ATOM     43  N3  UNL     1       0.413   9.295  -0.609  0.00  0.00    -0.271 NA
ATOM     44  C10 UNL     1       0.272   7.847  -0.430  0.00  0.00    +0.094 C 
ATOM     45  C11 UNL     1       1.474   7.011  -0.882  0.00  0.00    +0.108 C 
BRANCH  43  46
ATOM     46  C12 UNL     1       0.179   9.646  -2.009  0.00  0.00    +0.058 C 
ATOM     47  C13 UNL     1      -1.037   9.145  -2.735  0.00  0.00    +0.017 C 
ATOM     48  C14 UNL     1      -0.921  10.599  -2.381  0.00  0.00    +0.017 C 
ENDBRANCH  43  46
ENDBRANCH  37  40
BRANCH  34  50
ATOM     49  C1  UNL     1       7.632   5.182  -3.656  0.00  0.00    +0.039 C 
ATOM     50  C2  UNL     1       7.497   6.636  -3.259  0.00  0.00    +0.155 C 
BRANCH  50  51
ATOM     51  O7  UNL     1       8.639   7.054  -2.516  0.00  0.00    -0.348 OA
ATOM     52  C63 UNL     1       9.467   5.924  -2.295  0.00  0.00    +0.175 C 
ENDBRANCH  50  51
ENDBRANCH  34  50
ENDBRANCH   1  35
BRANCH  17  53
ATOM     53  N8  UNL     1       0.320  10.819 -11.734  0.00  0.00    -0.197 NA
ATOM     54  C40 UNL     1      -0.438   9.730 -12.125  0.00  0.00    +0.256 C 
ATOM     55  O5  UNL     1      -0.571   8.717 -11.438  0.00  0.00    -0.272 OA
BRANCH  54  56
ATOM     56  C41 UNL     1      -1.105   9.942 -13.501  0.00  0.00    +0.136 C 
BRANCH  56  57
ATOM     57  N9  UNL     1      -1.371   8.657 -14.172  0.00  0.00    -0.266 NA
ATOM     58  C47 UNL     1      -2.540   8.756 -15.042  0.00  0.00    +0.073 C 
ATOM     59  C48 UNL     1      -2.339   7.661 -16.079  0.00  0.00    +0.020 C 
ATOM     60  C49 UNL     1      -0.870   7.295 -15.987  0.00  0.00    +0.036 C 
ATOM     61  C50 UNL     1      -0.274   8.357 -15.099  0.00  0.00    +0.074 C 
ATOM     62  C51 UNL     1      -0.676   5.911 -15.384  0.00  0.00    +0.025 C 
ATOM     63  C52 UNL     1      -0.424   4.983 -16.556  0.00  0.00    +0.094 C 
ATOM     64  N10 UNL     1      -0.116   5.851 -17.670  0.00  0.00    -0.278 N 
ATOM     65  C53 UNL     1      -0.206   7.253 -17.345  0.00  0.00    +0.095 C 
ATOM     66  C54 UNL     1       0.199   5.424 -18.936  0.00  0.00    +0.241 C 
ATOM     67  O6  UNL     1       0.361   6.195 -19.877  0.00  0.00    -0.273 OA
BRANCH  66  68
ATOM     68  C55 UNL     1       0.295   3.946 -19.070  0.00  0.00    +0.150 C 
ATOM     69  C56 UNL     1       1.122   3.276 -20.114  0.00  0.00    +0.081 C 
ATOM     70  N11 UNL     1       1.512   3.200 -18.705  0.00  0.00    -0.264 NA
ATOM     71  C57 UNL     1       2.651   4.057 -18.408  0.00  0.00    +0.090 C 
BRANCH  69  72
ATOM     72  C58 UNL     1       1.948   3.920 -21.190  0.00  0.00    +0.016 C 
ATOM     73  C59 UNL     1       1.592   3.876 -22.645  0.00  0.00    +0.001 C 
ATOM     74  C60 UNL     1       2.808   3.152 -22.149  0.00  0.00    +0.001 C 
ENDBRANCH  69  72
ENDBRANCH  66  68
ENDBRANCH  56  57
BRANCH  56  75
ATOM     75  C42 UNL     1      -2.383  10.764 -13.407  0.00  0.00    +0.024 C 
ATOM     76  C43 UNL     1      -2.241  12.195 -13.875  0.00  0.00    +0.002 C 
ATOM     77  C44 UNL     1      -3.379  12.944 -13.201  0.00  0.00    +0.000 C 
ATOM     78  C45 UNL     1      -3.959  12.022 -12.140  0.00  0.00    +0.000 C 
ATOM     79  C46 UNL     1      -2.999  10.854 -12.026  0.00  0.00    +0.002 C 
ENDBRANCH  56  75
ENDBRANCH  54  56
ENDBRANCH  17  53
BRANCH  29  80
ATOM     80  C36 UNL     1       4.195   5.331  -5.245  0.00  0.00    +0.210 C 
BRANCH  80  81
ATOM     81  C37 UNL     1       2.700   5.140  -5.180  0.00  0.00    +0.418 C 
ATOM     82  F1  UNL     1       2.207   4.914  -6.421  0.00  0.00    -0.168 F 
ATOM     83  F2  UNL     1       2.078   6.233  -4.695  0.00  0.00    -0.168 F 
ATOM     84  F3  UNL     1       2.339   4.089  -4.416  0.00  0.00    -0.168 F 
ENDBRANCH  80  81
ENDBRANCH  29  80
TORSDOF 13
ENDMDL
