MODEL 1
REMARK VINA RESULT:    -6.684      0.000      0.000
REMARK INTER + INTRA:         -10.784
REMARK INTER:                  -9.419
REMARK INTRA:                  -1.366
REMARK UNBOUND:                -1.366
REMARK  Name = /tmp/tmp5wo1p38e/6N2J_candidate_0027.pdb
REMARK  7 active torsions:
REMARK  status: ('A' for Active; 'I' for Inactive)
REMARK    1  A    between atoms: C4_5  and  N2_8
REMARK    2  A    between atoms: C7_9  and  C8_11
REMARK    3  A    between atoms: C10_13  and  O4_41
REMARK    4  A    between atoms: C11_14  and  N3_18
REMARK    5  A    between atoms: C16_22  and  C27_37
REMARK    6  A    between atoms: C17_23  and  O2_25
REMARK    7  A    between atoms: O2_25  and  C18_26
REMARK                            x       y       z     vdW  Elec       q    Type
REMARK                         _______ _______ _______ _____ _____    ______ ____
ROOT
ATOM      1  N3  UNL     1       6.112  11.638  -9.612  0.00  0.00    -0.174 NA
ATOM      2  C14 UNL     1       6.094  10.248  -9.372  0.00  0.00    +0.243 A 
ATOM      3  N4  UNL     1       6.945   9.422 -10.003  0.00  0.00    -0.210 NA
ATOM      4  C15 UNL     1       6.848   8.107  -9.737  0.00  0.00    +0.110 A 
ATOM      5  C16 UNL     1       5.957   7.559  -8.860  0.00  0.00    +0.144 A 
ATOM      6  C17 UNL     1       5.126   8.463  -8.263  0.00  0.00    +0.237 A 
ATOM      7  N5  UNL     1       5.175   9.790  -8.504  0.00  0.00    -0.177 NA
ENDROOT
BRANCH   1  11
ATOM      8  C8  UNL     1       8.968  13.900 -11.782  0.00  0.00    +0.086 A 
ATOM      9  C9  UNL     1       8.957  13.900 -10.387  0.00  0.00    +0.045 A 
ATOM     10  C10 UNL     1       8.018  13.157  -9.666  0.00  0.00    +0.154 A 
ATOM     11  C11 UNL     1       7.055  12.391 -10.348  0.00  0.00    +0.110 A 
ATOM     12  C12 UNL     1       7.087  12.387 -11.746  0.00  0.00    +0.049 A 
ATOM     13  C13 UNL     1       8.027  13.131 -12.456  0.00  0.00    +0.146 A 
ATOM     14  F1  UNL     1       7.997  13.068 -13.793  0.00  0.00    -0.204 F 
BRANCH   8  16
ATOM     15  N2  UNL     1      11.295  14.490 -12.102  0.00  0.00    -0.203 NA
ATOM     16  C7  UNL     1       9.987  14.745 -12.442  0.00  0.00    +0.267 C 
ATOM     17  O1  UNL     1       9.639  15.591 -13.260  0.00  0.00    -0.268 OA
BRANCH  15  22
ATOM     18  C1  UNL     1      15.791  17.090 -12.841  0.00  0.00    +0.090 C 
ATOM     19  N1  UNL     1      15.300  15.806 -12.368  0.00  0.00    -0.271 NA
ATOM     20  C2  UNL     1      14.730  15.100 -13.503  0.00  0.00    +0.074 C 
ATOM     21  C3  UNL     1      13.513  14.275 -13.144  0.00  0.00    +0.039 C 
ATOM     22  C4  UNL     1      12.420  15.198 -12.658  0.00  0.00    +0.098 C 
ATOM     23  C5  UNL     1      12.926  16.305 -11.760  0.00  0.00    +0.039 C 
ATOM     24  C6  UNL     1      14.345  16.042 -11.295  0.00  0.00    +0.074 C 
ENDBRANCH  15  22
ENDBRANCH   8  16
BRANCH  10  25
ATOM     25  O4  UNL     1       7.984  13.145  -8.293  0.00  0.00    -0.470 OA
ATOM     26  C28 UNL     1       7.605  14.411  -7.761  0.00  0.00    +0.253 C 
ENDBRANCH  10  25
ENDBRANCH   1  11
BRANCH   5  27
ATOM     27  C27 UNL     1       5.905   6.101  -8.640  0.00  0.00    +0.424 C 
ATOM     28  F2  UNL     1       6.603   5.396  -9.571  0.00  0.00    -0.166 F 
ATOM     29  F3  UNL     1       6.431   5.732  -7.433  0.00  0.00    -0.166 F 
ATOM     30  F4  UNL     1       4.639   5.594  -8.641  0.00  0.00    -0.166 F 
ENDBRANCH   5  27
BRANCH   6  31
ATOM     31  O2  UNL     1       4.181   7.967  -7.372  0.00  0.00    -0.436 OA
BRANCH  31  32
ATOM     32  C18 UNL     1       4.480   8.052  -6.041  0.00  0.00    +0.151 A 
ATOM     33  C19 UNL     1       5.430   8.960  -5.567  0.00  0.00    +0.038 A 
ATOM     34  C20 UNL     1       5.764   8.985  -4.204  0.00  0.00    +0.003 A 
ATOM     35  C21 UNL     1       5.187   8.090  -3.299  0.00  0.00    -0.002 A 
ATOM     36  C22 UNL     1       4.271   7.181  -3.786  0.00  0.00    +0.005 A 
ATOM     37  C23 UNL     1       3.932   7.167  -5.140  0.00  0.00    +0.086 A 
ATOM     38  C24 UNL     1       2.953   6.090  -5.345  0.00  0.00    +0.252 C 
ATOM     39  O3  UNL     1       2.426   5.803  -6.402  0.00  0.00    -0.270 OA
ATOM     40  N6  UNL     1       2.764   5.502  -4.111  0.00  0.00    -0.270 N 
ATOM     41  C25 UNL     1       3.530   6.112  -3.045  0.00  0.00    +0.121 C 
ATOM     42  C26 UNL     1       1.841   4.433  -3.862  0.00  0.00    +0.116 C 
ENDBRANCH  31  32
ENDBRANCH   6  31
TORSDOF 7
ENDMDL
