MODEL 1
REMARK VINA RESULT:    -4.207      0.000      0.000
REMARK INTER + INTRA:          -5.033
REMARK INTER:                  -4.699
REMARK INTRA:                  -0.335
REMARK UNBOUND:                -0.335
REMARK  Name = /tmp/tmpmwpoz8gy/6N2J_candidate_0076.pdb
REMARK  2 active torsions:
REMARK  status: ('A' for Active; 'I' for Inactive)
REMARK    1  A    between atoms: N2_5  and  C5_7
REMARK    2  A    between atoms: C5_7  and  C6_8
REMARK                            x       y       z     vdW  Elec       q    Type
REMARK                         _______ _______ _______ _____ _____    ______ ____
ROOT
ATOM      1  C6  UNL     1       5.650   8.832  -9.584  0.00  0.00    +0.099 A 
ATOM      2  C7  UNL     1       5.416   7.761  -8.815  0.00  0.00    +0.131 A 
ATOM      3  C8  UNL     1       6.244   6.535  -9.003  0.00  0.00    +0.295 A 
ATOM      4  O1  UNL     1       6.068   5.524  -8.327  0.00  0.00    -0.264 OA
ATOM      5  N3  UNL     1       7.211   6.626  -9.982  0.00  0.00    -0.151 NA
ATOM      6  C9  UNL     1       7.477   7.736 -10.762  0.00  0.00    +0.371 A 
ATOM      7  O2  UNL     1       8.379   7.758 -11.599  0.00  0.00    -0.243 OA
ATOM      8  N4  UNL     1       6.657   8.823 -10.516  0.00  0.00    -0.192 NA
ATOM      9 CL1  UNL     1       4.185   7.728  -7.610  0.00  0.00    -0.076 Cl
ENDROOT
BRANCH   1  10
ATOM     10  C5  UNL     1       4.878  10.106  -9.478  0.00  0.00    +0.139 C 
BRANCH  10  15
ATOM     11  C1  UNL     1       2.956  10.972 -12.508  0.00  0.00    +0.029 C 
ATOM     12  C2  UNL     1       3.762  12.248 -12.275  0.00  0.00    +0.065 C 
ATOM     13  C3  UNL     1       4.718  11.833 -11.194  0.00  0.00    +0.131 C 
ATOM     14  N1  UNL     1       5.580  12.666 -10.725  0.00  0.00    -0.137 NA
ATOM     15  N2  UNL     1       4.488  10.542 -10.797  0.00  0.00    -0.290 N 
ATOM     16  C4  UNL     1       3.230  10.054 -11.319  0.00  0.00    +0.093 C 
ENDBRANCH  10  15
ENDBRANCH   1  10
TORSDOF 2
ENDMDL
