MODEL 1
REMARK VINA RESULT:    -3.913      0.000      0.000
REMARK INTER + INTRA:         -11.294
REMARK INTER:                  -7.345
REMARK INTRA:                  -3.949
REMARK UNBOUND:                -3.949
REMARK  Name = /tmp/tmpkvtrlc69/6N2J_candidate_0060.pdb
REMARK  15 active torsions:
REMARK  status: ('A' for Active; 'I' for Inactive)
REMARK    1  A    between atoms: C2_2  and  C4_4
REMARK    2  A    between atoms: C4_4  and  C5_5
REMARK    3  A    between atoms: C5_5  and  C6_6
REMARK    4  A    between atoms: C5_5  and  N1_8
REMARK    5  A    between atoms: C7_9  and  C8_11
REMARK    6  A    between atoms: C8_11  and  C9_12
REMARK    7  A    between atoms: C8_11  and  N2_16
REMARK    8  A    between atoms: C9_12  and  C10_13
REMARK    9  A    between atoms: C13_17  and  C14_19
REMARK   10  A    between atoms: C14_19  and  C15_20
REMARK   11  A    between atoms: C14_19  and  N3_24
REMARK   12  A    between atoms: C15_20  and  C16_21
REMARK   13  A    between atoms: C19_25  and  O5_27
REMARK   14  A    between atoms: O5_27  and  C20_28
REMARK   15  A    between atoms: C20_28  and  C21_29
REMARK                            x       y       z     vdW  Elec       q    Type
REMARK                         _______ _______ _______ _____ _____    ______ ____
ROOT
ATOM      1  N2  UNL     1       5.714   9.801  -6.463  0.00  0.00    -0.196 NA
ATOM      2  C13 UNL     1       6.339  10.281  -7.593  0.00  0.00    +0.262 C 
ATOM      3  O3  UNL     1       6.747  11.435  -7.695  0.00  0.00    -0.271 OA
ENDROOT
BRANCH   1   4
ATOM      4  C8  UNL     1       5.479  10.682  -5.345  0.00  0.00    +0.173 C 
BRANCH   4   6
ATOM      5  N1  UNL     1       5.753   8.557  -4.251  0.00  0.00    -0.198 NA
ATOM      6  C7  UNL     1       5.661   9.920  -4.041  0.00  0.00    +0.262 C 
ATOM      7  O2  UNL     1       5.752  10.439  -2.932  0.00  0.00    -0.271 OA
BRANCH   5   8
ATOM      8  C5  UNL     1       5.915   7.655  -3.134  0.00  0.00    +0.160 C 
BRANCH   8   9
ATOM      9  C6  UNL     1       7.362   7.262  -3.198  0.00  0.00    +0.229 C 
ATOM     10  O1  UNL     1       8.289   7.870  -2.682  0.00  0.00    -0.286 OA
ENDBRANCH   8   9
BRANCH   8  11
ATOM     11  C4  UNL     1       5.077   6.409  -3.338  0.00  0.00    +0.030 C 
BRANCH  11  13
ATOM     12  C1  UNL     1       3.710   7.547  -1.611  0.00  0.00    +0.000 C 
ATOM     13  C2  UNL     1       3.684   6.602  -2.788  0.00  0.00    +0.002 C 
ATOM     14  C3  UNL     1       3.135   5.269  -2.343  0.00  0.00    +0.000 C 
ENDBRANCH  11  13
ENDBRANCH   8  11
ENDBRANCH   5   8
ENDBRANCH   4   6
BRANCH   4  15
ATOM     15  C9  UNL     1       4.083  11.264  -5.417  0.00  0.00    +0.031 C 
BRANCH  15  16
ATOM     16  C10 UNL     1       3.073  10.233  -5.865  0.00  0.00    +0.002 C 
ATOM     17  C11 UNL     1       2.375  10.729  -7.106  0.00  0.00    +0.000 C 
ATOM     18  C12 UNL     1       2.046   9.993  -4.785  0.00  0.00    +0.000 C 
ENDBRANCH  15  16
ENDBRANCH   4  15
ENDBRANCH   1   4
BRANCH   2  19
ATOM     19  C14 UNL     1       6.493   9.203  -8.651  0.00  0.00    +0.176 C 
BRANCH  19  20
ATOM     20  N3  UNL     1       5.701   8.041  -8.347  0.00  0.00    -0.161 NA
ATOM     21  C19 UNL     1       6.089   6.804  -8.781  0.00  0.00    +0.422 C 
ATOM     22  O4  UNL     1       7.111   6.575  -9.420  0.00  0.00    -0.225 OA
BRANCH  21  23
ATOM     23  O5  UNL     1       5.192   5.863  -8.402  0.00  0.00    -0.429 OA
BRANCH  23  24
ATOM     24  C20 UNL     1       5.210   5.700  -6.990  0.00  0.00    +0.237 C 
BRANCH  24  25
ATOM     25  C21 UNL     1       3.810   5.554  -6.503  0.00  0.00    +0.021 A 
ATOM     26  C22 UNL     1       3.309   4.292  -6.187  0.00  0.00    -0.001 A 
ATOM     27  C23 UNL     1       1.997   4.152  -5.740  0.00  0.00    -0.000 A 
ATOM     28  C24 UNL     1       1.182   5.275  -5.608  0.00  0.00    -0.000 A 
ATOM     29  C25 UNL     1       1.679   6.535  -5.928  0.00  0.00    -0.000 A 
ATOM     30  C26 UNL     1       2.990   6.675  -6.377  0.00  0.00    -0.001 A 
ENDBRANCH  24  25
ENDBRANCH  23  24
ENDBRANCH  21  23
ENDBRANCH  19  20
BRANCH  19  31
ATOM     31  C15 UNL     1       6.249   9.741 -10.049  0.00  0.00    +0.031 C 
BRANCH  31  32
ATOM     32  C16 UNL     1       4.911  10.431 -10.196  0.00  0.00    +0.002 C 
ATOM     33  C17 UNL     1       5.089  11.720 -10.964  0.00  0.00    +0.000 C 
ATOM     34  C18 UNL     1       3.966   9.532 -10.955  0.00  0.00    +0.000 C 
ENDBRANCH  31  32
ENDBRANCH  19  31
ENDBRANCH   2  19
TORSDOF 15
ENDMDL
