MODEL 1
REMARK VINA RESULT:    -5.624      0.000      0.000
REMARK INTER + INTRA:          -9.113
REMARK INTER:                  -7.268
REMARK INTRA:                  -1.844
REMARK UNBOUND:                -1.844
REMARK  Name = /tmp/tmp9xns5snu/6N2J_candidate_0031.pdb
REMARK  5 active torsions:
REMARK  status: ('A' for Active; 'I' for Inactive)
REMARK    1  A    between atoms: C6_8  and  C7_10
REMARK    2  A    between atoms: N4_17  and  C23_33
REMARK    3  A    between atoms: C13_20  and  C17_25
REMARK    4  A    between atoms: C24_34  and  C30_42
REMARK    5  A    between atoms: C26_38  and  C27_39
REMARK                            x       y       z     vdW  Elec       q    Type
REMARK                         _______ _______ _______ _____ _____    ______ ____
ROOT
ATOM      1  C1  UNL     1       9.624 -14.247 -26.965  0.00  0.00    +0.023 C 
ATOM      2  C2  UNL     1       8.459 -14.018 -26.027  0.00  0.00    +0.095 C 
ATOM      3  C3  UNL     1       8.260 -12.526 -25.765  0.00  0.00    +0.112 C 
ATOM      4  N1  UNL     1       9.195 -12.009 -24.759  0.00  0.00    -0.291 N 
ATOM      5  C4  UNL     1       9.139 -12.761 -23.498  0.00  0.00    +0.094 C 
ATOM      6  C5  UNL     1       9.357 -14.256 -23.715  0.00  0.00    +0.113 C 
ATOM      7  N2  UNL     1       8.577 -14.812 -24.816  0.00  0.00    -0.274 N 
ATOM      8  C6  UNL     1       8.296 -16.162 -24.910  0.00  0.00    +0.249 C 
ATOM      9  O1  UNL     1       7.798 -16.673 -25.907  0.00  0.00    -0.270 OA
ATOM     10  C9  UNL     1       7.839 -12.491 -22.778  0.00  0.00    +0.023 C 
ATOM     11  C10 UNL     1      10.422 -11.471 -25.130  0.00  0.00    +0.139 A 
ATOM     12  N3  UNL     1      11.474 -11.783 -24.434  0.00  0.00    -0.177 NA
ATOM     13  C11 UNL     1      12.725 -11.307 -24.728  0.00  0.00    +0.356 A 
ATOM     14  O2  UNL     1      13.675 -11.612 -24.011  0.00  0.00    -0.244 OA
ATOM     15  N4  UNL     1      12.884 -10.470 -25.825  0.00  0.00    -0.241 N 
ATOM     16  C12 UNL     1      11.787 -10.078 -26.614  0.00  0.00    +0.154 A 
ATOM     17  N5  UNL     1      11.978  -9.266 -27.687  0.00  0.00    -0.225 NA
ATOM     18  C13 UNL     1      10.897  -8.876 -28.413  0.00  0.00    +0.114 A 
ATOM     19  C14 UNL     1       9.612  -9.299 -28.099  0.00  0.00    +0.158 A 
ATOM     20  C15 UNL     1       9.429 -10.147 -27.022  0.00  0.00    +0.037 A 
ATOM     21  C16 UNL     1      10.532 -10.553 -26.279  0.00  0.00    +0.069 A 
ATOM     22  F1  UNL     1       8.555  -8.925 -28.834  0.00  0.00    -0.203 F 
ENDROOT
BRANCH  18  23
ATOM     23  C17 UNL     1      11.181  -7.976 -29.531  0.00  0.00    +0.064 A 
ATOM     24  C18 UNL     1      11.520  -8.454 -30.810  0.00  0.00    +0.093 A 
ATOM     25  C19 UNL     1      11.790  -7.553 -31.847  0.00  0.00    +0.018 A 
ATOM     26  C20 UNL     1      11.734  -6.179 -31.632  0.00  0.00    +0.004 A 
ATOM     27  C21 UNL     1      11.405  -5.692 -30.374  0.00  0.00    +0.030 A 
ATOM     28  C22 UNL     1      11.131  -6.587 -29.343  0.00  0.00    +0.143 A 
ATOM     29  F2  UNL     1      10.818  -6.088 -28.136  0.00  0.00    -0.204 F 
ATOM     30  N6  UNL     1      11.578  -9.836 -31.096  0.00  0.00    -0.128 NA
ENDBRANCH  18  23
BRANCH  15  31
ATOM     31  C23 UNL     1      14.176  -9.983 -26.186  0.00  0.00    +0.097 A 
ATOM     32  C24 UNL     1      15.037 -10.718 -27.014  0.00  0.00    +0.078 A 
ATOM     33  N7  UNL     1      16.266 -10.247 -27.339  0.00  0.00    -0.227 NA
ATOM     34  C25 UNL     1      16.609  -9.047 -26.861  0.00  0.00    +0.198 A 
ATOM     35  N8  UNL     1      15.852  -8.270 -26.080  0.00  0.00    -0.227 NA
ATOM     36  C26 UNL     1      14.625  -8.732 -25.740  0.00  0.00    +0.078 A 
BRANCH  36  37
ATOM     37  C27 UNL     1      13.788  -7.900 -24.813  0.00  0.00    +0.042 C 
ATOM     38  C28 UNL     1      14.165  -6.494 -24.455  0.00  0.00    +0.006 C 
ATOM     39  C29 UNL     1      12.977  -6.750 -25.334  0.00  0.00    +0.006 C 
ENDBRANCH  36  37
BRANCH  32  40
ATOM     40  C30 UNL     1      14.627 -12.035 -27.604  0.00  0.00    +0.042 C 
ATOM     41  C31 UNL     1      15.336 -12.623 -28.788  0.00  0.00    +0.006 C 
ATOM     42  C32 UNL     1      13.948 -12.081 -28.944  0.00  0.00    +0.006 C 
ENDBRANCH  32  40
ENDBRANCH  15  31
BRANCH   8  43
ATOM     43  C7  UNL     1       8.625 -16.938 -23.689  0.00  0.00    +0.058 C 
ATOM     44  C8  UNL     1       7.733 -17.834 -23.261  0.00  0.00    +0.005 C 
ENDBRANCH   8  43
TORSDOF 5
ENDMDL
