MODEL 1
REMARK VINA RESULT:    -5.410      0.000      0.000
REMARK INTER + INTRA:          -8.717
REMARK INTER:                  -7.308
REMARK INTRA:                  -1.409
REMARK UNBOUND:                -1.409
REMARK  Name = /tmp/tmpp2no9stm/6N2J_candidate_0061.pdb
REMARK  6 active torsions:
REMARK  status: ('A' for Active; 'I' for Inactive)
REMARK    1  A    between atoms: C8_9  and  O1_12
REMARK    2  A    between atoms: O1_12  and  C10_13
REMARK    3  A    between atoms: C13_16  and  O3_29
REMARK    4  A    between atoms: C14_17  and  O2_23
REMARK    5  A    between atoms: O2_23  and  C19_24
REMARK    6  A    between atoms: C19_24  and  C20_25
REMARK                            x       y       z     vdW  Elec       q    Type
REMARK                         _______ _______ _______ _____ _____    ______ ____
ROOT
ATOM      1  C10 UNL     1      14.722  -8.592 -25.526  0.00  0.00    +0.148 A 
ATOM      2  C11 UNL     1      13.566  -8.190 -26.220  0.00  0.00    +0.055 A 
ATOM      3  C12 UNL     1      13.013  -8.923 -27.283  0.00  0.00    +0.045 A 
ATOM      4  C13 UNL     1      11.870  -8.491 -27.955  0.00  0.00    +0.173 A 
ATOM      5  C14 UNL     1      11.261  -7.303 -27.550  0.00  0.00    +0.174 A 
ATOM      6  C15 UNL     1      11.807  -6.584 -26.483  0.00  0.00    +0.059 A 
ATOM      7  C16 UNL     1      12.944  -7.000 -25.804  0.00  0.00    +0.087 A 
ATOM      8  N2  UNL     1      13.402  -6.267 -24.777  0.00  0.00    -0.244 NA
ATOM      9  C17 UNL     1      14.500  -6.708 -24.121  0.00  0.00    +0.102 A 
ATOM     10  C18 UNL     1      15.186  -7.862 -24.440  0.00  0.00    +0.058 A 
ENDROOT
BRANCH   4  11
ATOM     11  O3  UNL     1      11.315  -9.175 -29.002  0.00  0.00    -0.468 OA
ATOM     12  C23 UNL     1      12.294  -9.557 -29.962  0.00  0.00    +0.253 C 
ENDBRANCH   4  11
BRANCH   1  13
ATOM     13  O1  UNL     1      15.397  -9.759 -25.809  0.00  0.00    -0.451 OA
BRANCH  13  22
ATOM     14  C1  UNL     1      21.430  -8.585 -29.974  0.00  0.00    +0.052 C 
ATOM     15  C2  UNL     1      20.303  -8.848 -29.065  0.00  0.00    +0.059 A 
ATOM     16  C3  UNL     1      18.945  -8.731 -29.252  0.00  0.00    +0.019 A 
ATOM     17  C4  UNL     1      18.302  -9.118 -28.045  0.00  0.00    +0.049 A 
ATOM     18  C5  UNL     1      19.308  -9.460 -27.140  0.00  0.00    +0.083 A 
ATOM     19  N1  UNL     1      20.502  -9.287 -27.790  0.00  0.00    -0.250 NA
ATOM     20  C6  UNL     1      19.045  -9.880 -25.833  0.00  0.00    +0.022 A 
ATOM     21  C7  UNL     1      17.703  -9.957 -25.451  0.00  0.00    +0.041 A 
ATOM     22  C8  UNL     1      16.668  -9.649 -26.333  0.00  0.00    +0.173 A 
ATOM     23  C9  UNL     1      16.961  -9.206 -27.628  0.00  0.00    +0.176 A 
ATOM     24  F1  UNL     1      15.983  -8.855 -28.476  0.00  0.00    -0.201 F 
ENDBRANCH  13  22
ENDBRANCH   1  13
BRANCH   5  25
ATOM     25  O2  UNL     1      10.139  -6.895 -28.225  0.00  0.00    -0.471 OA
BRANCH  25  26
ATOM     26  C19 UNL     1      10.381  -5.710 -28.979  0.00  0.00    +0.223 C 
BRANCH  26  27
ATOM     27  C20 UNL     1      10.417  -6.024 -30.437  0.00  0.00    +0.117 C 
ATOM     28  C21 UNL     1       9.249  -5.578 -31.276  0.00  0.00    +0.023 C 
ATOM     29  C22 UNL     1       9.400  -7.023 -30.921  0.00  0.00    +0.023 C 
ATOM     30  N3  UNL     1      11.750  -6.055 -31.048  0.00  0.00    -0.131 NA
ENDBRANCH  26  27
ENDBRANCH  25  26
ENDBRANCH   5  25
TORSDOF 6
ENDMDL
