MODEL 1
REMARK VINA RESULT:    -6.096      0.000      0.000
REMARK INTER + INTRA:         -10.469
REMARK INTER:                  -8.235
REMARK INTRA:                  -2.235
REMARK UNBOUND:                -2.235
REMARK  Name = /tmp/tmpvdpx67i5/6N2J_candidate_0063.pdb
REMARK  6 active torsions:
REMARK  status: ('A' for Active; 'I' for Inactive)
REMARK    1  A    between atoms: C3_3  and  N2_11
REMARK    2  A    between atoms: C4_4  and  C7_8
REMARK    3  A    between atoms: C11_14  and  C26_35
REMARK    4  A    between atoms: C15_18  and  N5_24
REMARK    5  A    between atoms: C16_19  and  C18_22
REMARK    6  A    between atoms: C23_30  and  C24_32
REMARK                            x       y       z     vdW  Elec       q    Type
REMARK                         _______ _______ _______ _____ _____    ______ ____
ROOT
ATOM      1  N2  UNL     1      22.755 -11.315 -28.615  0.00  0.00    -0.258 N 
ATOM      2  C10 UNL     1      22.343  -9.968 -28.519  0.00  0.00    +0.151 A 
ATOM      3  N3  UNL     1      23.204  -8.988 -28.902  0.00  0.00    -0.227 NA
ATOM      4  C11 UNL     1      22.827  -7.691 -28.790  0.00  0.00    +0.097 A 
ATOM      5  C12 UNL     1      21.584  -7.331 -28.291  0.00  0.00    +0.076 A 
ATOM      6  C13 UNL     1      20.722  -8.347 -27.906  0.00  0.00    +0.017 A 
ATOM      7  C14 UNL     1      21.070  -9.696 -28.025  0.00  0.00    +0.050 A 
ATOM      8  C15 UNL     1      20.144 -10.782 -27.608  0.00  0.00    +0.065 A 
ATOM      9  C16 UNL     1      20.586 -12.056 -27.740  0.00  0.00    +0.138 A 
ATOM     10  C17 UNL     1      21.934 -12.381 -28.298  0.00  0.00    +0.277 A 
ATOM     11  O1  UNL     1      22.264 -13.557 -28.443  0.00  0.00    -0.266 OA
ATOM     12 CL1  UNL     1      21.058  -5.704 -28.137  0.00  0.00    -0.081 Cl
ENDROOT
BRANCH   4  13
ATOM     13  C26 UNL     1      23.840  -6.737 -29.240  0.00  0.00    +0.067 A 
ATOM     14  C27 UNL     1      23.862  -6.236 -30.558  0.00  0.00    +0.122 A 
ATOM     15  C28 UNL     1      24.839  -5.303 -30.926  0.00  0.00    +0.186 A 
ATOM     16  C29 UNL     1      25.788  -4.864 -30.011  0.00  0.00    +0.198 A 
ATOM     17  C30 UNL     1      25.779  -5.359 -28.718  0.00  0.00    +0.197 A 
ATOM     18  C31 UNL     1      24.816  -6.286 -28.337  0.00  0.00    +0.173 A 
ATOM     19  F1  UNL     1      24.838  -6.770 -27.083  0.00  0.00    -0.202 F 
ATOM     20  F2  UNL     1      26.703  -4.951 -27.836  0.00  0.00    -0.199 F 
ATOM     21  F3  UNL     1      26.716  -3.973 -30.384  0.00  0.00    -0.199 F 
ATOM     22  F4  UNL     1      24.870  -4.830 -32.182  0.00  0.00    -0.200 F 
ATOM     23  N7  UNL     1      22.915  -6.665 -31.515  0.00  0.00    -0.126 NA
ENDBRANCH   4  13
BRANCH   8  24
ATOM     24  N5  UNL     1      18.899 -10.391 -27.085  0.00  0.00    -0.303 N 
ATOM     25  C19 UNL     1      18.775  -9.845 -25.722  0.00  0.00    +0.112 C 
ATOM     26  C20 UNL     1      17.353  -9.938 -25.180  0.00  0.00    +0.115 C 
ATOM     27  N6  UNL     1      16.385  -9.312 -26.057  0.00  0.00    -0.273 N 
ATOM     28  C21 UNL     1      16.765  -9.107 -27.444  0.00  0.00    +0.115 C 
ATOM     29  C22 UNL     1      17.719 -10.184 -27.947  0.00  0.00    +0.112 C 
ATOM     30  C23 UNL     1      15.160  -8.970 -25.536  0.00  0.00    +0.249 C 
ATOM     31  O2  UNL     1      14.850  -9.167 -24.366  0.00  0.00    -0.270 OA
BRANCH  30  32
ATOM     32  C24 UNL     1      14.240  -8.341 -26.514  0.00  0.00    +0.058 C 
ATOM     33  C25 UNL     1      13.124  -7.771 -26.054  0.00  0.00    +0.005 C 
ENDBRANCH  30  32
ENDBRANCH   8  24
BRANCH   1  36
ATOM     34  C1  UNL     1      23.012 -11.673 -31.487  0.00  0.00    +0.033 C 
ATOM     35  C2  UNL     1      24.176 -11.726 -30.559  0.00  0.00    -0.003 A 
ATOM     36  C3  UNL     1      24.041 -11.553 -29.172  0.00  0.00    +0.078 A 
ATOM     37  C4  UNL     1      25.195 -11.637 -28.373  0.00  0.00    +0.074 A 
ATOM     38  N1  UNL     1      26.430 -11.850 -28.901  0.00  0.00    -0.247 NA
ATOM     39  C5  UNL     1      26.519 -12.003 -30.241  0.00  0.00    +0.098 A 
ATOM     40  C6  UNL     1      25.436 -11.953 -31.102  0.00  0.00    +0.018 A 
BRANCH  37  41
ATOM     41  C7  UNL     1      25.201 -11.525 -26.885  0.00  0.00    +0.042 C 
ATOM     42  C8  UNL     1      25.402 -10.127 -26.358  0.00  0.00    +0.006 C 
ATOM     43  C9  UNL     1      26.093 -12.528 -26.198  0.00  0.00    +0.006 C 
ENDBRANCH  37  41
ENDBRANCH   1  36
BRANCH   9  44
ATOM     44  C18 UNL     1      19.769 -13.173 -27.399  0.00  0.00    +0.107 C 
ATOM     45  N4  UNL     1      19.051 -14.032 -27.092  0.00  0.00    -0.191 NA
ENDBRANCH   9  44
TORSDOF 6
ENDMDL
