MODEL 1
REMARK VINA RESULT:    -6.224      0.000      0.000
REMARK INTER + INTRA:         -13.081
REMARK INTER:                 -10.590
REMARK INTRA:                  -2.491
REMARK UNBOUND:                -2.491
REMARK  Name = /tmp/tmp8_pjzzf2/6N2J_candidate_0051.pdb
REMARK  12 active torsions:
REMARK  status: ('A' for Active; 'I' for Inactive)
REMARK    1  A    between atoms: C3_3  and  C9_11
REMARK    2  A    between atoms: C10_12  and  C39_52
REMARK    3  A    between atoms: C14_16  and  O1_17
REMARK    4  A    between atoms: O1_17  and  C15_18
REMARK    5  A    between atoms: C15_18  and  C16_19
REMARK    6  A    between atoms: C17_24  and  O3_40
REMARK    7  A    between atoms: C26_36  and  C27_38
REMARK    8  A    between atoms: O3_40  and  C29_41
REMARK    9  A    between atoms: C32_44  and  C35_47
REMARK   10  A    between atoms: C35_47  and  C36_48
REMARK   11  A    between atoms: C36_48  and  C37_49
REMARK   12  A    between atoms: C37_49  and  O4_50
REMARK                            x       y       z     vdW  Elec       q    Type
REMARK                         _______ _______ _______ _____ _____    ______ ____
ROOT
ATOM      1  C9  UNL     1      14.907 -10.175 -26.426  0.00  0.00    +0.031 A 
ATOM      2  C10 UNL     1      15.962 -10.177 -27.358  0.00  0.00    -0.019 A 
ATOM      3  C11 UNL     1      16.862 -11.242 -27.295  0.00  0.00    +0.000 A 
ATOM      4  C12 UNL     1      16.785 -12.273 -26.343  0.00  0.00    +0.052 A 
ATOM      5  C13 UNL     1      15.734 -12.293 -25.424  0.00  0.00    +0.122 A 
ATOM      6  C14 UNL     1      14.793 -11.244 -25.494  0.00  0.00    +0.156 A 
ATOM      7  N3  UNL     1      15.639 -13.274 -24.506  0.00  0.00    -0.191 NA
ATOM      8  C17 UNL     1      16.587 -14.223 -24.511  0.00  0.00    +0.321 A 
ATOM      9  N4  UNL     1      17.616 -14.291 -25.355  0.00  0.00    -0.179 NA
ATOM     10  C18 UNL     1      17.727 -13.313 -26.267  0.00  0.00    +0.138 A 
ATOM     11  N5  UNL     1      18.822 -13.356 -27.173  0.00  0.00    -0.293 N 
ATOM     12  C19 UNL     1      19.485 -14.653 -27.083  0.00  0.00    +0.092 C 
ATOM     13  C20 UNL     1      20.623 -14.717 -28.083  0.00  0.00    +0.025 C 
ATOM     14  C21 UNL     1      21.562 -13.547 -27.871  0.00  0.00    +0.040 C 
ATOM     15  C22 UNL     1      20.846 -12.212 -27.873  0.00  0.00    +0.025 C 
ATOM     16  C23 UNL     1      19.714 -12.244 -26.863  0.00  0.00    +0.092 C 
ATOM     17  C24 UNL     1      22.758 -13.581 -28.822  0.00  0.00    +0.095 C 
ATOM     18  N6  UNL     1      23.609 -13.728 -27.655  0.00  0.00    -0.276 N 
ATOM     19  C25 UNL     1      22.527 -13.727 -26.694  0.00  0.00    +0.095 C 
ATOM     20  C26 UNL     1      24.898 -13.287 -27.529  0.00  0.00    +0.249 C 
ATOM     21  O2  UNL     1      25.620 -12.976 -28.468  0.00  0.00    -0.270 OA
ENDROOT
BRANCH   1  24
ATOM     22  C1  UNL     1      12.580 -10.087 -28.318  0.00  0.00    +0.031 C 
ATOM     23  C2  UNL     1      12.828  -9.015 -27.307  0.00  0.00    -0.022 A 
ATOM     24  C3  UNL     1      13.928  -9.075 -26.427  0.00  0.00    +0.002 A 
ATOM     25  C4  UNL     1      14.086  -8.020 -25.502  0.00  0.00    +0.040 A 
ATOM     26  C5  UNL     1      13.172  -6.973 -25.490  0.00  0.00    +0.104 A 
ATOM     27  C6  UNL     1      12.077  -6.895 -26.350  0.00  0.00    +0.021 A 
ATOM     28  C7  UNL     1      11.932  -7.945 -27.258  0.00  0.00    -0.003 A 
ATOM     29  N1  UNL     1      13.599  -6.128 -24.506  0.00  0.00    -0.148 NA
ATOM     30  N2  UNL     1      14.717  -6.528 -23.878  0.00  0.00    -0.146 NA
ATOM     31  C8  UNL     1      15.002  -7.686 -24.476  0.00  0.00    +0.124 A 
ENDBRANCH   1  24
BRANCH   2  32
ATOM     32  C39 UNL     1      16.124  -9.105 -28.392  0.00  0.00    +0.022 C 
ATOM     33  C40 UNL     1      16.663  -9.389 -29.764  0.00  0.00    +0.005 C 
ATOM     34  C41 UNL     1      17.497  -8.634 -28.776  0.00  0.00    +0.005 C 
ENDBRANCH   2  32
BRANCH  20  35
ATOM     35  C27 UNL     1      25.367 -13.208 -26.131  0.00  0.00    +0.058 C 
ATOM     36  C28 UNL     1      26.701 -13.206 -26.002  0.00  0.00    +0.005 C 
ENDBRANCH  20  35
BRANCH   6  37
ATOM     37  O1  UNL     1      13.728 -11.138 -24.615  0.00  0.00    -0.465 OA
BRANCH  37  38
ATOM     38  C15 UNL     1      12.647 -11.978 -25.019  0.00  0.00    +0.308 C 
BRANCH  38  39
ATOM     39  C16 UNL     1      12.222 -12.932 -23.924  0.00  0.00    +0.438 C 
ATOM     40  F1  UNL     1      12.964 -12.793 -22.803  0.00  0.00    -0.166 F 
ATOM     41  F2  UNL     1      10.924 -12.764 -23.586  0.00  0.00    -0.166 F 
ATOM     42  F3  UNL     1      12.364 -14.214 -24.337  0.00  0.00    -0.166 F 
ENDBRANCH  38  39
ENDBRANCH  37  38
ENDBRANCH   6  37
BRANCH   8  43
ATOM     43  O3  UNL     1      16.530 -15.254 -23.599  0.00  0.00    -0.450 OA
BRANCH  43  44
ATOM     44  C29 UNL     1      15.224 -15.340 -23.043  0.00  0.00    +0.169 C 
ATOM     45  C30 UNL     1      14.655 -16.725 -23.302  0.00  0.00    +0.044 C 
ATOM     46  C31 UNL     1      15.393 -17.843 -22.592  0.00  0.00    +0.004 C 
ATOM     47  C32 UNL     1      16.175 -17.373 -21.379  0.00  0.00    +0.000 C 
ATOM     48  C33 UNL     1      15.459 -16.241 -20.669  0.00  0.00    +0.004 C 
ATOM     49  C34 UNL     1      15.306 -15.023 -21.558  0.00  0.00    +0.044 C 
BRANCH  47  50
ATOM     50  C35 UNL     1      16.415 -18.531 -20.444  0.00  0.00    +0.003 C 
BRANCH  50  51
ATOM     51  C36 UNL     1      15.857 -18.226 -19.072  0.00  0.00    +0.032 C 
BRANCH  51  52
ATOM     52  C37 UNL     1      16.892 -18.449 -17.995  0.00  0.00    +0.142 C 
BRANCH  52  53
ATOM     53  O4  UNL     1      17.847 -17.401 -18.028  0.00  0.00    -0.351 OA
ATOM     54  C38 UNL     1      18.494 -17.395 -16.763  0.00  0.00    +0.174 C 
ENDBRANCH  52  53
ENDBRANCH  51  52
ENDBRANCH  50  51
ENDBRANCH  47  50
ENDBRANCH  43  44
ENDBRANCH   8  43
TORSDOF 12
ENDMDL
