MODEL 1
REMARK VINA RESULT:    -4.689      0.000      0.000
REMARK INTER + INTRA:          -7.465
REMARK INTER:                  -6.334
REMARK INTRA:                  -1.131
REMARK UNBOUND:                -1.131
REMARK  Name = /tmp/tmpgq2e2rad/6N2J_candidate_0020.pdb
REMARK  6 active torsions:
REMARK  status: ('A' for Active; 'I' for Inactive)
REMARK    1  A    between atoms: C3_3  and  N1_9
REMARK    2  A    between atoms: N1_9  and  C7_10
REMARK    3  A    between atoms: C8_11  and  C12_16
REMARK    4  A    between atoms: N3_18  and  C13_19
REMARK    5  A    between atoms: C13_19  and  C14_20
REMARK    6  A    between atoms: C14_20  and  C15_21
REMARK                            x       y       z     vdW  Elec       q    Type
REMARK                         _______ _______ _______ _____ _____    ______ ____
ROOT
ATOM      1  C7  UNL     1      14.014  -9.208 -24.939  0.00  0.00    +0.094 A 
ATOM      2  C8  UNL     1      15.148  -8.416 -25.158  0.00  0.00    +0.073 A 
ATOM      3  C9  UNL     1      15.133  -7.051 -24.860  0.00  0.00    +0.027 A 
ATOM      4  C10 UNL     1      13.974  -6.512 -24.339  0.00  0.00    +0.099 A 
ATOM      5  N2  UNL     1      12.860  -7.229 -24.102  0.00  0.00    -0.241 NA
ATOM      6  C11 UNL     1      12.914  -8.543 -24.412  0.00  0.00    +0.115 A 
ENDROOT
BRANCH   2   7
ATOM      7  C12 UNL     1      16.414  -8.987 -25.674  0.00  0.00    +0.266 C 
ATOM      8  O1  UNL     1      17.305  -9.365 -24.924  0.00  0.00    -0.268 OA
ATOM      9  N3  UNL     1      16.493  -9.051 -27.048  0.00  0.00    -0.199 NA
BRANCH   9  10
ATOM     10  C13 UNL     1      17.673  -9.528 -27.732  0.00  0.00    +0.151 C 
BRANCH  10  11
ATOM     11  C14 UNL     1      17.607 -10.986 -28.143  0.00  0.00    +0.206 C 
ATOM     12  O3  UNL     1      16.248 -11.398 -28.090  0.00  0.00    -0.218 OA
BRANCH  11  13
ATOM     13  C15 UNL     1      18.433 -11.883 -27.246  0.00  0.00    +0.217 C 
ATOM     14  O2  UNL     1      19.692 -11.298 -26.949  0.00  0.00    -0.218 OA
ENDBRANCH  11  13
ENDBRANCH  10  11
ENDBRANCH   9  10
ENDBRANCH   2   7
BRANCH   1  15
ATOM     15  N1  UNL     1      13.978 -10.568 -25.303  0.00  0.00    -0.208 NA
BRANCH  15  18
ATOM     16  C1  UNL     1      15.837 -13.537 -23.994  0.00  0.00    +0.007 A 
ATOM     17  C2  UNL     1      15.538 -12.394 -24.734  0.00  0.00    +0.019 A 
ATOM     18  C3  UNL     1      14.329 -11.714 -24.559  0.00  0.00    +0.098 A 
ATOM     19  C4  UNL     1      13.421 -12.227 -23.623  0.00  0.00    +0.156 A 
ATOM     20  C5  UNL     1      13.705 -13.367 -22.877  0.00  0.00    +0.037 A 
ATOM     21  C6  UNL     1      14.917 -14.016 -23.070  0.00  0.00    +0.032 A 
ATOM     22  I1  UNL     1      15.357 -15.704 -21.974  0.00  0.00    -0.042 I 
ATOM     23  F1  UNL     1      12.249 -11.605 -23.420  0.00  0.00    -0.203 F 
ENDBRANCH  15  18
ENDBRANCH   1  15
TORSDOF 6
ENDMDL
