MODEL 1
REMARK VINA RESULT:    -5.642      0.000      0.000
REMARK INTER + INTRA:         -10.354
REMARK INTER:                  -8.611
REMARK INTRA:                  -1.743
REMARK UNBOUND:                -1.743
REMARK  Name = /tmp/tmpm46u7qtf/6N2J_candidate_0072.pdb
REMARK  9 active torsions:
REMARK  status: ('A' for Active; 'I' for Inactive)
REMARK    1  A    between atoms: C3_4  and  C10_11
REMARK    2  A    between atoms: N4_17  and  C14_18
REMARK    3  A    between atoms: C15_19  and  O2_36
REMARK    4  A    between atoms: C17_21  and  N6_29
REMARK    5  A    between atoms: C18_22  and  N5_24
REMARK    6  A    between atoms: C20_25  and  C21_27
REMARK    7  A    between atoms: N6_29  and  C24_31
REMARK    8  A    between atoms: C24_31  and  C25_32
REMARK    9  A    between atoms: C25_32  and  N7_33
REMARK                            x       y       z     vdW  Elec       q    Type
REMARK                         _______ _______ _______ _____ _____    ______ ____
ROOT
ATOM      1  C14 UNL     1      13.489 -12.390 -23.766  0.00  0.00    +0.109 A 
ATOM      2  C15 UNL     1      12.755 -12.911 -24.837  0.00  0.00    +0.155 A 
ATOM      3  C16 UNL     1      12.428 -12.085 -25.916  0.00  0.00    +0.054 A 
ATOM      4  C17 UNL     1      12.826 -10.739 -26.008  0.00  0.00    +0.067 A 
ATOM      5  C18 UNL     1      13.552 -10.222 -24.914  0.00  0.00    +0.088 A 
ATOM      6  C19 UNL     1      13.875 -11.049 -23.830  0.00  0.00    +0.038 A 
ENDROOT
BRANCH   1  13
ATOM      7  C10 UNL     1      15.771 -16.063 -21.625  0.00  0.00    +0.087 A 
ATOM      8  N2  UNL     1      14.812 -15.111 -21.666  0.00  0.00    -0.212 NA
ATOM      9  C11 UNL     1      14.858 -14.203 -22.659  0.00  0.00    +0.241 A 
ATOM     10  N3  UNL     1      15.840 -14.193 -23.578  0.00  0.00    -0.211 NA
ATOM     11  C12 UNL     1      16.766 -15.164 -23.503  0.00  0.00    +0.103 A 
ATOM     12  C13 UNL     1      16.791 -16.141 -22.543  0.00  0.00    +0.040 A 
ATOM     13  N4  UNL     1      13.847 -13.220 -22.680  0.00  0.00    -0.175 NA
BRANCH   7  17
ATOM     14  C1  UNL     1      13.831 -19.548 -18.726  0.00  0.00    +0.130 C 
ATOM     15  N1  UNL     1      14.796 -18.605 -19.247  0.00  0.00    -0.324 N 
ATOM     16  C2  UNL     1      14.562 -17.804 -20.319  0.00  0.00    +0.077 A 
ATOM     17  C3  UNL     1      15.686 -17.034 -20.544  0.00  0.00    +0.036 A 
ATOM     18  C4  UNL     1      16.642 -17.408 -19.540  0.00  0.00    +0.019 A 
ATOM     19  C5  UNL     1      17.956 -17.000 -19.231  0.00  0.00    +0.002 A 
ATOM     20  C6  UNL     1      18.625 -17.582 -18.154  0.00  0.00    +0.000 A 
ATOM     21  C7  UNL     1      18.009 -18.560 -17.382  0.00  0.00    +0.001 A 
ATOM     22  C8  UNL     1      16.710 -18.989 -17.658  0.00  0.00    +0.017 A 
ATOM     23  C9  UNL     1      16.051 -18.395 -18.742  0.00  0.00    +0.060 A 
ENDBRANCH   7  17
ENDBRANCH   1  13
BRANCH   5  24
ATOM     24  N5  UNL     1      13.899  -8.861 -24.886  0.00  0.00    -0.174 NA
ATOM     25  C20 UNL     1      15.155  -8.314 -25.031  0.00  0.00    +0.269 C 
ATOM     26  O1  UNL     1      16.205  -8.884 -25.296  0.00  0.00    -0.268 OA
BRANCH  25  27
ATOM     27  C21 UNL     1      15.063  -6.848 -24.841  0.00  0.00    +0.060 C 
ATOM     28  C22 UNL     1      13.906  -6.342 -24.411  0.00  0.00    +0.005 C 
ENDBRANCH  25  27
ENDBRANCH   5  24
BRANCH   4  29
ATOM     29  N6  UNL     1      12.441  -9.965 -27.124  0.00  0.00    -0.303 N 
ATOM     30  C23 UNL     1      11.006  -9.909 -27.350  0.00  0.00    +0.112 C 
BRANCH  29  31
ATOM     31  C24 UNL     1      13.182 -10.295 -28.339  0.00  0.00    +0.108 C 
BRANCH  31  32
ATOM     32  C25 UNL     1      14.399  -9.391 -28.470  0.00  0.00    +0.094 C 
BRANCH  32  33
ATOM     33  N7  UNL     1      15.560 -10.130 -28.952  0.00  0.00    -0.269 NA
ATOM     34  C26 UNL     1      16.699  -9.233 -28.869  0.00  0.00    +0.090 C 
ATOM     35  C27 UNL     1      15.803 -11.191 -27.992  0.00  0.00    +0.090 C 
ENDBRANCH  32  33
ENDBRANCH  31  32
ENDBRANCH  29  31
ENDBRANCH   4  29
BRANCH   2  36
ATOM     36  O2  UNL     1      12.379 -14.230 -24.771  0.00  0.00    -0.470 OA
ATOM     37  C28 UNL     1      10.976 -14.369 -24.588  0.00  0.00    +0.253 C 
ENDBRANCH   2  36
TORSDOF 9
ENDMDL
