MODEL 1
REMARK VINA RESULT:    -5.774      0.000      0.000
REMARK INTER + INTRA:          -8.710
REMARK INTER:                  -7.461
REMARK INTRA:                  -1.249
REMARK UNBOUND:                -1.249
REMARK  Name = /tmp/tmp_8pnlw4t/6N2J_candidate_0029.pdb
REMARK  5 active torsions:
REMARK  status: ('A' for Active; 'I' for Inactive)
REMARK    1  A    between atoms: C2_2  and  C3_3
REMARK    2  A    between atoms: C2_2  and  O1_12
REMARK    3  A    between atoms: O1_12  and  C9_13
REMARK    4  A    between atoms: C12_17  and  C14_19
REMARK    5  A    between atoms: N2_21  and  C17_24
REMARK                            x       y       z     vdW  Elec       q    Type
REMARK                         _______ _______ _______ _____ _____    ______ ____
ROOT
ATOM      1  C9  UNL     1       5.816  11.547  -8.864  0.00  0.00    +0.173 A 
ATOM      2  C10 UNL     1       6.164  11.878  -7.550  0.00  0.00    +0.204 A 
ATOM      3  N1  UNL     1       7.233  12.667  -7.267  0.00  0.00    -0.223 NA
ATOM      4  C11 UNL     1       7.964  13.132  -8.305  0.00  0.00    +0.101 A 
ATOM      5  C12 UNL     1       7.696  12.858  -9.635  0.00  0.00    +0.025 A 
ATOM      6  C13 UNL     1       6.597  12.053  -9.901  0.00  0.00    +0.042 A 
ATOM      7  N5  UNL     1       5.384  11.378  -6.483  0.00  0.00    -0.104 NA
ENDROOT
BRANCH   5   8
ATOM      8  C14 UNL     1       8.507  13.377 -10.707  0.00  0.00    +0.041 A 
ATOM      9  C15 UNL     1       9.775  13.897 -10.560  0.00  0.00    +0.097 A 
ATOM     10  N2  UNL     1      10.174  14.268 -11.809  0.00  0.00    -0.251 N 
ATOM     11  N3  UNL     1       9.261  14.031 -12.768  0.00  0.00    -0.168 NA
ATOM     12  C16 UNL     1       8.246  13.484 -12.093  0.00  0.00    +0.122 A 
BRANCH  10  13
ATOM     13  C17 UNL     1      11.451  14.863 -12.129  0.00  0.00    +0.108 C 
ATOM     14  C18 UNL     1      11.269  16.222 -12.779  0.00  0.00    +0.043 C 
ATOM     15  C19 UNL     1      12.082  16.341 -14.050  0.00  0.00    +0.091 C 
ATOM     16  N4  UNL     1      13.465  15.983 -13.773  0.00  0.00    -0.218 NA
ATOM     17  C20 UNL     1      13.584  14.578 -13.411  0.00  0.00    +0.091 C 
ATOM     18  C21 UNL     1      12.294  13.921 -12.963  0.00  0.00    +0.043 C 
ENDBRANCH  10  13
ENDBRANCH   5   8
BRANCH   1  19
ATOM     19  O1  UNL     1       4.725  10.742  -9.076  0.00  0.00    -0.472 OA
BRANCH  19  21
ATOM     20  C1  UNL     1       3.700   9.783 -11.035  0.00  0.00    +0.052 C 
ATOM     21  C2  UNL     1       4.919   9.822 -10.143  0.00  0.00    +0.190 C 
BRANCH  21  22
ATOM     22  C3  UNL     1       5.304   8.468  -9.622  0.00  0.00    +0.041 A 
ATOM     23  C4  UNL     1       4.546   7.759  -8.675  0.00  0.00    +0.058 A 
ATOM     24  C5  UNL     1       4.961   6.506  -8.216  0.00  0.00    +0.014 A 
ATOM     25  C6  UNL     1       6.136   5.935  -8.689  0.00  0.00    +0.031 A 
ATOM     26  C7  UNL     1       6.893   6.623  -9.625  0.00  0.00    +0.150 A 
ATOM     27  C8  UNL     1       6.489   7.877 -10.093  0.00  0.00    +0.085 A 
ATOM     28 CL1  UNL     1       7.472   8.680 -11.269  0.00  0.00    -0.080 Cl
ATOM     29  F1  UNL     1       8.023   6.058 -10.077  0.00  0.00    -0.203 F 
ATOM     30 CL2  UNL     1       3.071   8.361  -8.019  0.00  0.00    -0.082 Cl
ENDBRANCH  21  22
ENDBRANCH  19  21
ENDBRANCH   1  19
TORSDOF 5
ENDMDL
