MODEL 1
REMARK VINA RESULT:    -5.568      0.000      0.000
REMARK INTER + INTRA:          -7.326
REMARK INTER:                  -6.544
REMARK INTRA:                  -0.782
REMARK UNBOUND:                -0.782
REMARK  Name = /tmp/tmp8p0b1s5l/6N2J_candidate_0096.pdb
REMARK  3 active torsions:
REMARK  status: ('A' for Active; 'I' for Inactive)
REMARK    1  A    between atoms: C3_3  and  C22_28
REMARK    2  A    between atoms: C7_7  and  C8_8
REMARK    3  A    between atoms: C8_8  and  N1_10
REMARK                            x       y       z     vdW  Elec       q    Type
REMARK                         _______ _______ _______ _____ _____    ______ ____
ROOT
ATOM      1  N1  UNL     1      17.403  -8.837 -28.505  0.00  0.00    -0.216 NA
ATOM      2  C10 UNL     1      18.589  -9.535 -28.179  0.00  0.00    +0.170 A 
ATOM      3  N2  UNL     1      18.545 -10.814 -27.732  0.00  0.00    -0.132 NA
ATOM      4  N3  UNL     1      19.691 -11.497 -27.410  0.00  0.00    -0.151 NA
ATOM      5  C11 UNL     1      20.886 -10.895 -27.542  0.00  0.00    +0.082 A 
ATOM      6  C12 UNL     1      20.989  -9.586 -27.999  0.00  0.00    +0.037 A 
ATOM      7  C13 UNL     1      22.197  -8.918 -28.154  0.00  0.00    +0.102 A 
ATOM      8  N4  UNL     1      22.326  -7.648 -28.596  0.00  0.00    -0.229 NA
ATOM      9  C14 UNL     1      21.200  -6.972 -28.919  0.00  0.00    +0.132 A 
ATOM     10  C15 UNL     1      19.946  -7.568 -28.779  0.00  0.00    +0.037 A 
ATOM     11  C16 UNL     1      19.822  -8.887 -28.325  0.00  0.00    +0.040 A 
ATOM     12  N5  UNL     1      21.300  -5.637 -29.326  0.00  0.00    -0.288 N 
ATOM     13  C17 UNL     1      22.662  -5.293 -29.728  0.00  0.00    +0.124 C 
ATOM     14  C18 UNL     1      22.732  -3.831 -30.160  0.00  0.00    +0.164 C 
ATOM     15  O1  UNL     1      21.791  -3.554 -31.204  0.00  0.00    -0.350 OA
ATOM     16  C19 UNL     1      20.474  -3.782 -30.693  0.00  0.00    +0.164 C 
ATOM     17  C20 UNL     1      20.285  -5.245 -30.299  0.00  0.00    +0.124 C 
ATOM     18  C21 UNL     1      22.086 -11.700 -27.173  0.00  0.00    +0.054 C 
ENDROOT
BRANCH   1  19
ATOM     19  C8  UNL     1      16.232  -9.656 -28.250  0.00  0.00    +0.116 C 
ATOM     20  C9  UNL     1      15.275  -9.539 -29.415  0.00  0.00    +0.028 C 
BRANCH  19  27
ATOM     21  C1  UNL     1      14.952 -11.668 -26.565  0.00  0.00    +0.031 C 
ATOM     22  C2  UNL     1      14.978 -10.233 -26.132  0.00  0.00    -0.015 A 
ATOM     23  C3  UNL     1      14.398  -9.851 -24.912  0.00  0.00    +0.064 A 
ATOM     24  C4  UNL     1      14.430  -8.515 -24.512  0.00  0.00    +0.010 A 
ATOM     25  C5  UNL     1      15.036  -7.555 -25.315  0.00  0.00    +0.000 A 
ATOM     26  C6  UNL     1      15.614  -7.930 -26.524  0.00  0.00    -0.003 A 
ATOM     27  C7  UNL     1      15.590  -9.265 -26.948  0.00  0.00    -0.006 A 
BRANCH  23  28
ATOM     28  C22 UNL     1      13.763 -10.799 -24.046  0.00  0.00    +0.100 C 
ATOM     29  N6  UNL     1      13.257 -11.565 -23.335  0.00  0.00    -0.191 NA
ENDBRANCH  23  28
ENDBRANCH  19  27
ENDBRANCH   1  19
TORSDOF 3
ENDMDL
