MODEL 1
REMARK VINA RESULT:    -5.949      0.000      0.000
REMARK INTER + INTRA:         -10.717
REMARK INTER:                  -8.384
REMARK INTRA:                  -2.333
REMARK UNBOUND:                -2.333
REMARK  Name = /tmp/tmprck9367w/6N2J_candidate_0097.pdb
REMARK  7 active torsions:
REMARK  status: ('A' for Active; 'I' for Inactive)
REMARK    1  A    between atoms: C2_2  and  N1_3
REMARK    2  A    between atoms: C13_16  and  N8_52
REMARK    3  A    between atoms: C24_32  and  C25_33
REMARK    4  A    between atoms: C26_34  and  C35_46
REMARK    5  A    between atoms: C28_37  and  N6_39
REMARK    6  A    between atoms: C35_46  and  O4_48
REMARK    7  A    between atoms: C40_53  and  C41_55
REMARK                            x       y       z     vdW  Elec       q    Type
REMARK                         _______ _______ _______ _____ _____    ______ ____
ROOT
ATOM      1  N1  UNL     1      -0.296  -0.812 -18.228  0.00  0.00    -0.327 N 
ATOM      2  C3  UNL     1       0.554  -1.745 -18.769  0.00  0.00    +0.060 A 
ATOM      3  C4  UNL     1       1.099  -1.177 -19.919  0.00  0.00    +0.013 A 
ATOM      4  C5  UNL     1       2.023  -1.927 -20.674  0.00  0.00    +0.003 A 
ATOM      5  C6  UNL     1       2.381  -3.215 -20.260  0.00  0.00    +0.018 A 
ATOM      6  C7  UNL     1       1.808  -3.748 -19.106  0.00  0.00    +0.003 A 
ATOM      7  C8  UNL     1       0.885  -3.034 -18.338  0.00  0.00    +0.017 A 
ATOM      8  C9  UNL     1       3.355  -3.975 -21.022  0.00  0.00    +0.088 A 
ATOM      9  C10 UNL     1       3.783  -5.235 -20.666  0.00  0.00    +0.056 A 
ATOM     10  S1  UNL     1       4.952  -5.818 -21.751  0.00  0.00    -0.070 S 
ATOM     11  C11 UNL     1       4.814  -4.358 -22.640  0.00  0.00    +0.090 A 
ATOM     12  N2  UNL     1       3.944  -3.481 -22.181  0.00  0.00    -0.243 NA
ATOM     13  C12 UNL     1       5.664  -4.166 -23.838  0.00  0.00    +0.084 C 
ATOM     14  C13 UNL     1       4.852  -3.575 -24.969  0.00  0.00    +0.179 C 
ATOM     15  C14 UNL     1       5.216  -2.107 -25.078  0.00  0.00    +0.260 C 
ATOM     16  O1  UNL     1       6.363  -1.737 -25.334  0.00  0.00    -0.272 OA
ATOM     17  N3  UNL     1       4.126  -1.253 -24.918  0.00  0.00    -0.205 N 
ATOM     18  C15 UNL     1       2.858  -1.729 -24.396  0.00  0.00    +0.113 C 
ATOM     19  C16 UNL     1       1.697  -0.839 -24.795  0.00  0.00    +0.025 C 
ATOM     20  C17 UNL     1       2.104   0.247 -25.772  0.00  0.00    +0.033 C 
ATOM     21  C18 UNL     1       3.378   0.968 -25.359  0.00  0.00    +0.192 C 
ATOM     22  N4  UNL     1       4.397   0.113 -24.745  0.00  0.00    -0.118 NA
ATOM     23  C19 UNL     1       3.043   2.103 -24.416  0.00  0.00    +0.335 C 
ATOM     24  O2  UNL     1       3.094   3.288 -24.724  0.00  0.00    -0.248 OA
ATOM     25  O3  UNL     1       2.636   1.636 -23.205  0.00  0.00    -0.448 OA
ATOM     26  C20 UNL     1       2.312   2.684 -22.294  0.00  0.00    +0.209 C 
ATOM     27  C21 UNL     1       1.937   2.086 -20.948  0.00  0.00    +0.045 C 
ATOM     28  C22 UNL     1       0.824   1.075 -21.166  0.00  0.00    +0.031 C 
ATOM     29  C23 UNL     1       0.534   0.128 -20.059  0.00  0.00    -0.005 A 
ATOM     30  C24 UNL     1      -0.354   0.320 -19.008  0.00  0.00    +0.057 A 
ATOM     31  C38 UNL     1       1.468   3.212 -20.055  0.00  0.00    +0.004 C 
ATOM     32  C39 UNL     1       3.176   1.461 -20.337  0.00  0.00    +0.004 C 
ENDROOT
BRANCH  30  33
ATOM     33  C25 UNL     1      -1.228   1.455 -18.720  0.00  0.00    +0.033 A 
ATOM     34  C26 UNL     1      -2.476   1.624 -19.323  0.00  0.00    +0.087 A 
ATOM     35  N5  UNL     1      -3.271   2.694 -19.058  0.00  0.00    -0.244 NA
ATOM     36  C27 UNL     1      -2.805   3.605 -18.173  0.00  0.00    +0.113 A 
ATOM     37  C28 UNL     1      -1.590   3.539 -17.496  0.00  0.00    +0.067 A 
ATOM     38  C29 UNL     1      -0.805   2.431 -17.816  0.00  0.00    +0.019 A 
BRANCH  37  39
ATOM     39  N6  UNL     1      -1.144   4.532 -16.625  0.00  0.00    -0.303 N 
ATOM     40  C30 UNL     1       0.013   5.297 -17.090  0.00  0.00    +0.108 C 
ATOM     41  C31 UNL     1       0.233   6.526 -16.210  0.00  0.00    +0.094 C 
ATOM     42  N7  UNL     1      -0.881   7.476 -16.229  0.00  0.00    -0.269 NA
ATOM     43  C32 UNL     1      -2.166   6.777 -16.311  0.00  0.00    +0.094 C 
ATOM     44  C33 UNL     1      -2.184   5.293 -15.934  0.00  0.00    +0.108 C 
ATOM     45  C34 UNL     1      -0.849   8.191 -14.966  0.00  0.00    +0.090 C 
ENDBRANCH  37  39
BRANCH  34  46
ATOM     46  C35 UNL     1      -2.983   0.581 -20.289  0.00  0.00    +0.155 C 
ATOM     47  C36 UNL     1      -3.775   1.210 -21.411  0.00  0.00    +0.039 C 
BRANCH  46  48
ATOM     48  O4  UNL     1      -3.795  -0.388 -19.636  0.00  0.00    -0.348 OA
ATOM     49  C37 UNL     1      -3.347  -1.667 -20.061  0.00  0.00    +0.175 C 
ENDBRANCH  46  48
ENDBRANCH  34  46
ENDBRANCH  30  33
BRANCH  14  50
ATOM     50  N8  UNL     1       5.159  -4.208 -26.231  0.00  0.00    -0.197 NA
ATOM     51  C40 UNL     1       4.167  -4.425 -27.151  0.00  0.00    +0.241 C 
ATOM     52  O5  UNL     1       2.997  -4.092 -27.005  0.00  0.00    -0.273 OA
BRANCH  51  53
ATOM     53  C41 UNL     1       4.637  -5.085 -28.380  0.00  0.00    +0.078 C 
ATOM     54  C42 UNL     1       5.197  -4.263 -29.506  0.00  0.00    +0.010 C 
ATOM     55  C43 UNL     1       6.104  -5.140 -28.699  0.00  0.00    +0.009 C 
ATOM     56  C44 UNL     1       6.636  -6.368 -29.334  0.00  0.00    +0.001 C 
ENDBRANCH  51  53
ENDBRANCH  14  50
BRANCH   1  58
ATOM     57  C1  UNL     1      -0.292  -0.786 -15.791  0.00  0.00    +0.026 C 
ATOM     58  C2  UNL     1      -1.101  -1.051 -17.041  0.00  0.00    +0.106 C 
ENDBRANCH   1  58
TORSDOF 7
ENDMDL
