MODEL 1
REMARK VINA RESULT:    -5.965      0.000      0.000
REMARK INTER + INTRA:          -8.291
REMARK INTER:                  -7.012
REMARK INTRA:                  -1.280
REMARK UNBOUND:                -1.280
REMARK  Name = /tmp/tmptjdbntnp/6N2J_candidate_0069.pdb
REMARK  3 active torsions:
REMARK  status: ('A' for Active; 'I' for Inactive)
REMARK    1  A    between atoms: C2_2  and  C3_3
REMARK    2  A    between atoms: C12_16  and  C17_23
REMARK    3  A    between atoms: C19_25  and  C25_34
REMARK                            x       y       z     vdW  Elec       q    Type
REMARK                         _______ _______ _______ _____ _____    ______ ____
ROOT
ATOM      1  C3  UNL     1      20.982  -8.721 -29.184  0.00  0.00    +0.249 C 
ATOM      2  O1  UNL     1      20.983  -8.119 -30.253  0.00  0.00    -0.270 OA
ATOM      3  N1  UNL     1      19.837  -8.934 -28.445  0.00  0.00    -0.273 N 
ATOM      4  C4  UNL     1      19.864  -9.419 -27.075  0.00  0.00    +0.115 C 
ATOM      5  C5  UNL     1      18.584 -10.145 -26.684  0.00  0.00    +0.115 C 
ATOM      6  N2  UNL     1      17.381  -9.456 -27.111  0.00  0.00    -0.274 N 
ATOM      7  C6  UNL     1      17.349  -8.939 -28.474  0.00  0.00    +0.099 C 
ATOM      8  C7  UNL     1      18.643  -8.238 -28.873  0.00  0.00    +0.114 C 
ATOM      9  C8  UNL     1      17.012 -10.014 -29.485  0.00  0.00    +0.069 C 
ATOM     10  C9  UNL     1      15.523 -10.047 -29.735  0.00  0.00    +0.207 C 
ATOM     11  O2  UNL     1      14.867 -10.592 -28.594  0.00  0.00    -0.474 OA
ATOM     12  C10 UNL     1      14.317  -9.548 -27.893  0.00  0.00    +0.153 A 
ATOM     13  C11 UNL     1      13.064  -9.017 -28.249  0.00  0.00    +0.094 A 
ATOM     14  C12 UNL     1      12.477  -7.988 -27.481  0.00  0.00    +0.041 A 
ATOM     15  C13 UNL     1      13.177  -7.536 -26.350  0.00  0.00    +0.141 A 
ATOM     16  C14 UNL     1      14.406  -8.069 -25.978  0.00  0.00    +0.037 A 
ATOM     17  C15 UNL     1      14.980  -9.065 -26.759  0.00  0.00    +0.091 A 
ATOM     18  C16 UNL     1      16.271  -9.603 -26.297  0.00  0.00    +0.252 C 
ATOM     19  O3  UNL     1      16.329 -10.101 -25.176  0.00  0.00    -0.270 OA
ATOM     20  F1  UNL     1      12.652  -6.558 -25.595  0.00  0.00    -0.204 F 
ATOM     21 CL1  UNL     1      12.229  -9.644 -29.637  0.00  0.00    -0.079 Cl
ENDROOT
BRANCH  14  22
ATOM     22  C17 UNL     1      11.195  -7.364 -27.831  0.00  0.00    +0.004 A 
ATOM     23  C18 UNL     1       9.946  -7.936 -27.425  0.00  0.00    +0.020 A 
ATOM     24  C19 UNL     1       9.604  -9.121 -26.660  0.00  0.00    +0.092 A 
ATOM     25  C20 UNL     1       8.246  -9.303 -26.502  0.00  0.00    +0.128 A 
ATOM     26  S1  UNL     1       7.359  -8.065 -27.260  0.00  0.00    -0.066 S 
ATOM     27  C21 UNL     1       8.776  -7.264 -27.813  0.00  0.00    +0.059 A 
ATOM     28  C22 UNL     1       8.823  -6.077 -28.566  0.00  0.00    +0.146 A 
ATOM     29  C23 UNL     1      10.042  -5.537 -28.947  0.00  0.00    +0.030 A 
ATOM     30  C24 UNL     1      11.210  -6.175 -28.580  0.00  0.00    +0.002 A 
ATOM     31  F2  UNL     1       7.694  -5.450 -28.928  0.00  0.00    -0.204 F 
ATOM     32  N3  UNL     1       7.616 -10.309 -25.844  0.00  0.00    -0.120 NA
BRANCH  24  33
ATOM     33  C25 UNL     1      10.548 -10.044 -26.103  0.00  0.00    +0.102 C 
ATOM     34  N4  UNL     1      11.285 -10.809 -25.638  0.00  0.00    -0.191 NA
ENDBRANCH  24  33
ENDBRANCH  14  22
BRANCH   1  36
ATOM     35  C1  UNL     1      23.242  -8.482 -28.369  0.00  0.00    +0.005 C 
ATOM     36  C2  UNL     1      22.209  -9.298 -28.586  0.00  0.00    +0.058 C 
ENDBRANCH   1  36
TORSDOF 3
ENDMDL
