MODEL 1
REMARK VINA RESULT:    -6.658      0.000      0.000
REMARK INTER + INTRA:         -10.188
REMARK INTER:                  -8.215
REMARK INTRA:                  -1.974
REMARK UNBOUND:                -1.974
REMARK  Name = /tmp/tmp99xk0ybu/6N2J_candidate_0068.pdb
REMARK  4 active torsions:
REMARK  status: ('A' for Active; 'I' for Inactive)
REMARK    1  A    between atoms: C7_9  and  C9_12
REMARK    2  A    between atoms: N3_14  and  C20_27
REMARK    3  A    between atoms: C11_16  and  C12_17
REMARK    4  A    between atoms: C26_34  and  C27_36
REMARK                            x       y       z     vdW  Elec       q    Type
REMARK                         _______ _______ _______ _____ _____    ______ ____
ROOT
ATOM      1  C9  UNL     1       9.416  -7.628 -28.253  0.00  0.00    +0.033 A 
ATOM      2  C10 UNL     1       8.043  -7.553 -28.123  0.00  0.00    +0.057 A 
ATOM      3  N3  UNL     1       7.794  -7.760 -26.793  0.00  0.00    -0.257 N 
ATOM      4  N4  UNL     1       8.902  -7.934 -26.062  0.00  0.00    -0.170 NA
ATOM      5  C11 UNL     1       9.919  -7.873 -26.937  0.00  0.00    +0.102 A 
ATOM      6  C29 UNL     1       6.995  -7.317 -29.135  0.00  0.00    +0.052 C 
ENDROOT
BRANCH   1  15
ATOM      7  C1  UNL     1      12.125  -4.961 -31.579  0.00  0.00    +0.032 C 
ATOM      8  C2  UNL     1      11.402  -6.198 -31.147  0.00  0.00    -0.010 A 
ATOM      9  C3  UNL     1      11.376  -7.268 -32.051  0.00  0.00    +0.018 A 
ATOM     10  C4  UNL     1      10.698  -8.419 -31.652  0.00  0.00    +0.104 A 
ATOM     11  C5  UNL     1      10.062  -8.545 -30.425  0.00  0.00    +0.041 A 
ATOM     12  C6  UNL     1       9.511  -9.848 -30.454  0.00  0.00    +0.124 A 
ATOM     13  N1  UNL     1       9.773 -10.496 -31.590  0.00  0.00    -0.146 NA
ATOM     14  N2  UNL     1      10.490  -9.609 -32.295  0.00  0.00    -0.148 NA
ATOM     15  C7  UNL     1      10.097  -7.463 -29.519  0.00  0.00    +0.016 A 
ATOM     16  C8  UNL     1      10.774  -6.286 -29.896  0.00  0.00    +0.054 A 
ATOM     17 CL1  UNL     1      10.836  -4.926 -28.820  0.00  0.00    -0.083 Cl
ENDBRANCH   1  15
BRANCH   5  18
ATOM     18  C12 UNL     1      11.301  -8.044 -26.489  0.00  0.00    +0.020 A 
ATOM     19  C13 UNL     1      11.943  -7.041 -25.752  0.00  0.00    +0.005 A 
ATOM     20  C14 UNL     1      13.272  -7.229 -25.347  0.00  0.00    +0.038 A 
ATOM     21  C15 UNL     1      13.927  -8.409 -25.682  0.00  0.00    +0.079 A 
ATOM     22  C16 UNL     1      13.321  -9.435 -26.409  0.00  0.00    +0.019 A 
ATOM     23  C17 UNL     1      11.996  -9.216 -26.803  0.00  0.00    +0.003 A 
ATOM     24  N5  UNL     1      15.179  -8.277 -25.153  0.00  0.00    -0.249 N 
ATOM     25  N6  UNL     1      15.396  -7.118 -24.511  0.00  0.00    -0.168 NA
ATOM     26  C18 UNL     1      14.229  -6.478 -24.630  0.00  0.00    +0.122 A 
ATOM     27  C19 UNL     1      16.246  -9.251 -25.231  0.00  0.00    +0.154 C 
ENDBRANCH   5  18
BRANCH   3  28
ATOM     28  C20 UNL     1       6.488  -7.808 -26.118  0.00  0.00    +0.105 C 
ATOM     29  C21 UNL     1       5.918  -6.424 -25.759  0.00  0.00    +0.028 C 
ATOM     30  C22 UNL     1       5.761  -6.924 -24.354  0.00  0.00    +0.040 C 
ATOM     31  C23 UNL     1       6.562  -8.163 -24.623  0.00  0.00    +0.028 C 
ATOM     32  C24 UNL     1       6.175  -6.035 -23.230  0.00  0.00    +0.095 C 
ATOM     33  N7  UNL     1       4.810  -6.193 -22.730  0.00  0.00    -0.276 N 
ATOM     34  C25 UNL     1       4.379  -7.080 -23.810  0.00  0.00    +0.095 C 
ATOM     35  C26 UNL     1       4.453  -6.221 -21.408  0.00  0.00    +0.249 C 
ATOM     36  O1  UNL     1       5.158  -5.790 -20.502  0.00  0.00    -0.270 OA
BRANCH  35  37
ATOM     37  C27 UNL     1       3.115  -6.815 -21.185  0.00  0.00    +0.058 C 
ATOM     38  C28 UNL     1       2.545  -6.644 -19.990  0.00  0.00    +0.005 C 
ENDBRANCH  35  37
ENDBRANCH   3  28
TORSDOF 4
ENDMDL
