MODEL 1
REMARK VINA RESULT:    -9.319      0.000      0.000
REMARK INTER + INTRA:          -4.954
REMARK INTER:                  -9.864
REMARK INTRA:                   4.911
REMARK UNBOUND:                 4.911
REMARK  Name = /tmp/tmpjlfy66h3/6N2J_candidate_0058.pdb
REMARK  3 active torsions:
REMARK  status: ('A' for Active; 'I' for Inactive)
REMARK    1  A    between atoms: C3_3  and  C21_38
REMARK    2  A    between atoms: C7_9  and  N4_21
REMARK    3  A    between atoms: C9_11  and  N1_16
REMARK                            x       y       z     vdW  Elec       q    Type
REMARK                         _______ _______ _______ _____ _____    ______ ____
ROOT
ATOM      1  C1  UNL     1       6.098  -2.048 -25.228  0.00  0.00    +0.035 C 
ATOM      2  C2  UNL     1       5.191  -1.826 -24.048  0.00  0.00    +0.155 C 
ATOM      3  C3  UNL     1       4.363  -3.007 -23.598  0.00  0.00    +0.238 C 
ATOM      4  C4  UNL     1       3.305  -2.296 -22.797  0.00  0.00    +0.208 C 
ATOM      5  C5  UNL     1       3.068  -1.051 -23.640  0.00  0.00    +0.243 C 
ATOM      6  O1  UNL     1       4.314  -0.722 -24.273  0.00  0.00    -0.330 OA
ATOM      7  O2  UNL     1       2.593  -0.001 -22.806  0.00  0.00    -0.328 OA
ATOM      8  C6  UNL     1       2.424   1.223 -23.523  0.00  0.00    +0.175 C 
ATOM      9  C7  UNL     1       3.728   2.016 -23.579  0.00  0.00    +0.169 C 
ATOM     10  C8  UNL     1       3.697   3.255 -24.467  0.00  0.00    +0.203 C 
ATOM     11  C9  UNL     1       3.047   2.943 -25.810  0.00  0.00    +0.166 C 
ATOM     12  C10 UNL     1       1.643   2.385 -25.608  0.00  0.00    +0.211 C 
ATOM     13  C11 UNL     1       1.776   1.057 -24.894  0.00  0.00    +0.213 C 
ATOM     14  O3  UNL     1       0.503   0.445 -24.758  0.00  0.00    -0.218 OA
ATOM     15  O4  UNL     1       0.867   3.278 -24.811  0.00  0.00    -0.218 OA
ATOM     16  O5  UNL     1       5.032   3.698 -24.681  0.00  0.00    -0.219 OA
ATOM     17  O6  UNL     1       2.104  -2.997 -22.535  0.00  0.00    -0.324 OA
ATOM     18  C14 UNL     1       2.321  -3.971 -21.527  0.00  0.00    +0.254 C 
ATOM     19  C15 UNL     1       1.123  -3.969 -20.563  0.00  0.00    +0.157 C 
ATOM     20  C16 UNL     1       0.971  -5.305 -19.862  0.00  0.00    +0.203 C 
ATOM     21  C17 UNL     1       2.305  -6.016 -19.814  0.00  0.00    +0.188 C 
ATOM     22  C18 UNL     1       2.828  -6.272 -21.212  0.00  0.00    +0.220 C 
ATOM     23  O7  UNL     1       2.543  -5.230 -22.143  0.00  0.00    -0.323 OA
ATOM     24  C19 UNL     1       4.303  -6.612 -21.172  0.00  0.00    +0.350 C 
ATOM     25  O8  UNL     1       4.747  -7.005 -22.459  0.00  0.00    -0.171 OA
ATOM     26  O9  UNL     1       2.232  -7.226 -19.082  0.00  0.00    -0.220 OA
ATOM     27  O10 UNL     1      -0.004  -6.081 -20.541  0.00  0.00    -0.219 OA
ATOM     28  N7  UNL     1       1.337  -2.949 -19.532  0.00  0.00    -0.225 NA
ATOM     29  C20 UNL     1       0.799  -1.695 -20.043  0.00  0.00    +0.138 C 
ATOM     30  O12 UNL     1       5.141  -3.866 -22.793  0.00  0.00    -0.212 OA
ATOM     31  C22 UNL     1       0.597  -3.840 -20.957  0.00  0.00    +0.013 C 
ATOM     32  C23 UNL     1       2.080  -3.999 -20.722  0.00  0.00    +0.068 C 
ATOM     33  C24 UNL     1       2.784  -4.306 -22.038  0.00  0.00    +0.184 C 
ATOM     34  N8  UNL     1       3.231  -3.050 -22.612  0.00  0.00    -0.260 N 
ATOM     35  C25 UNL     1       3.574  -1.971 -21.667  0.00  0.00    +0.153 C 
ATOM     36  S1  UNL     1       2.693  -2.395 -20.105  0.00  0.00    -0.121 S 
ATOM     37  C26 UNL     1       2.769  -1.006 -22.557  0.00  0.00    +0.221 C 
ATOM     38  C27 UNL     1       2.331  -2.282 -23.297  0.00  0.00    +0.252 C 
ATOM     39  O13 UNL     1       1.473  -2.606 -24.083  0.00  0.00    -0.273 OA
ATOM     40  N9  UNL     1       3.592  -0.083 -23.346  0.00  0.00    -0.192 NA
ATOM     41  C28 UNL     1       3.770   1.225 -22.965  0.00  0.00    +0.246 C 
ATOM     42  O14 UNL     1       3.293   1.718 -21.949  0.00  0.00    -0.273 OA
ATOM     43  C29 UNL     1       4.643   1.975 -23.932  0.00  0.00    +0.113 C 
ATOM     44  C30 UNL     1       3.872   2.901 -24.811  0.00  0.00    -0.015 A 
ATOM     45  C31 UNL     1       3.297   2.431 -25.992  0.00  0.00    -0.001 A 
ATOM     46  C32 UNL     1       2.587   3.300 -26.816  0.00  0.00    -0.003 A 
ATOM     47  C33 UNL     1       2.454   4.642 -26.464  0.00  0.00    -0.000 A 
ATOM     48  C34 UNL     1       3.031   5.117 -25.287  0.00  0.00    -0.000 A 
ATOM     49  C35 UNL     1       3.741   4.248 -24.463  0.00  0.00    -0.004 A 
ATOM     50  C36 UNL     1       3.969  -5.237 -21.884  0.00  0.00    +0.338 C 
ATOM     51  O15 UNL     1       5.090  -4.926 -21.504  0.00  0.00    -0.248 OA
ATOM     52  O16 UNL     1       3.600  -6.500 -22.216  0.00  0.00    -0.419 OA
ATOM     53  C37 UNL     1       2.280  -5.025 -19.632  0.00  0.00    +0.048 C 
ENDROOT
BRANCH  11  54
ATOM     54  N1  UNL     1       2.983   4.137 -26.662  0.00  0.00    -0.228 NA
ATOM     55  C12 UNL     1       3.326   3.906 -27.898  0.00  0.00    +0.285 C 
ATOM     56  N2  UNL     1       3.706   2.690 -28.436  0.00  0.00    -0.104 NA
ATOM     57  N3  UNL     1       3.333   4.916 -28.843  0.00  0.00    -0.104 NA
ENDBRANCH  11  54
BRANCH   9  58
ATOM     58  N4  UNL     1       4.296   2.278 -22.246  0.00  0.00    -0.230 NA
ATOM     59  C13 UNL     1       3.560   2.897 -21.374  0.00  0.00    +0.284 C 
ATOM     60  N5  UNL     1       2.267   3.355 -21.550  0.00  0.00    -0.104 NA
ATOM     61  N6  UNL     1       4.037   3.184 -20.109  0.00  0.00    -0.104 NA
ENDBRANCH   9  58
BRANCH   3  62
ATOM     62  C21 UNL     1       3.772  -3.798 -24.736  0.00  0.00    +0.242 C 
ATOM     63  O11 UNL     1       4.222  -4.843 -25.189  0.00  0.00    -0.285 OA
ENDBRANCH   3  62
TORSDOF 3
ENDMDL
