MODEL 1
REMARK VINA RESULT:    -6.086      0.000      0.000
REMARK INTER + INTRA:          -8.009
REMARK INTER:                  -7.865
REMARK INTRA:                  -0.144
REMARK UNBOUND:                -0.144
REMARK  Name = /tmp/tmpb7kb5c4b/7YCE_candidate_0070.pdb
REMARK  5 active torsions:
REMARK  status: ('A' for Active; 'I' for Inactive)
REMARK    1  A    between atoms: C4_5  and  C9_11
REMARK    2  A    between atoms: C6_7  and  O1_8
REMARK    3  A    between atoms: C9_11  and  S1_12
REMARK    4  A    between atoms: S1_12  and  C10_14
REMARK    5  A    between atoms: C14_20  and  O3_23
REMARK                            x       y       z     vdW  Elec       q    Type
REMARK                         _______ _______ _______ _____ _____    ______ ____
ROOT
ATOM      1  S1  UNL     1     -13.194  -2.766 -17.127  0.00  0.00    +0.107 S 
ATOM      2  O2  UNL     1     -13.120  -3.839 -18.178  0.00  0.00    -0.248 OA
ENDROOT
BRANCH   1   3
ATOM      3  C10 UNL     1     -14.951  -2.447 -16.903  0.00  0.00    +0.221 A 
ATOM      4  N2  UNL     1     -15.504  -1.256 -16.791  0.00  0.00    -0.218 NA
ATOM      5  C11 UNL     1     -16.852  -1.501 -16.652  0.00  0.00    +0.101 A 
ATOM      6  C12 UNL     1     -17.114  -2.865 -16.679  0.00  0.00    +0.104 A 
ATOM      7  N3  UNL     1     -15.885  -3.443 -16.841  0.00  0.00    -0.218 NA
ATOM      8  C13 UNL     1     -18.391  -3.409 -16.560  0.00  0.00    +0.058 A 
ATOM      9  C14 UNL     1     -19.444  -2.499 -16.405  0.00  0.00    +0.140 A 
ATOM     10  C15 UNL     1     -19.207  -1.123 -16.375  0.00  0.00    +0.039 A 
ATOM     11  C16 UNL     1     -17.916  -0.600 -16.495  0.00  0.00    +0.024 A 
BRANCH   9  12
ATOM     12  O3  UNL     1     -20.689  -3.060 -16.290  0.00  0.00    -0.471 OA
ATOM     13  C17 UNL     1     -20.624  -4.360 -15.715  0.00  0.00    +0.252 C 
ENDBRANCH   9  12
ENDBRANCH   1   3
BRANCH   1  14
ATOM     14  C9  UNL     1     -12.920  -3.533 -15.508  0.00  0.00    +0.145 C 
BRANCH  14  19
ATOM     15  C1  UNL     1      -8.541  -1.033 -12.782  0.00  0.00    +0.036 C 
ATOM     16  C2  UNL     1      -9.637  -1.741 -13.491  0.00  0.00    +0.031 A 
ATOM     17  C3  UNL     1     -10.914  -1.216 -13.479  0.00  0.00    +0.097 A 
ATOM     18  N1  UNL     1     -11.969  -1.784 -14.102  0.00  0.00    -0.248 NA
ATOM     19  C4  UNL     1     -11.748  -2.934 -14.787  0.00  0.00    +0.072 A 
ATOM     20  C5  UNL     1     -10.492  -3.529 -14.872  0.00  0.00    +0.026 A 
ATOM     21  C6  UNL     1      -9.436  -2.928 -14.182  0.00  0.00    +0.133 A 
ATOM     22  C8  UNL     1     -10.272  -4.754 -15.694  0.00  0.00    +0.035 C 
BRANCH  21  23
ATOM     23  O1  UNL     1      -8.173  -3.454 -14.230  0.00  0.00    -0.472 OA
ATOM     24  C7  UNL     1      -7.514  -2.820 -15.324  0.00  0.00    +0.252 C 
ENDBRANCH  21  23
ENDBRANCH  14  19
ENDBRANCH   1  14
TORSDOF 5
ENDMDL
