MODEL 1
REMARK VINA RESULT:    -6.179      0.000      0.000
REMARK INTER + INTRA:         -10.825
REMARK INTER:                  -8.346
REMARK INTRA:                  -2.478
REMARK UNBOUND:                -2.478
REMARK  Name = /tmp/tmpnybrjbgg/7YCE_candidate_0035.pdb
REMARK  6 active torsions:
REMARK  status: ('A' for Active; 'I' for Inactive)
REMARK    1  A    between atoms: C7_7  and  O13_64
REMARK    2  A    between atoms: C18_19  and  O12_59
REMARK    3  A    between atoms: C25_27  and  C35_44
REMARK    4  A    between atoms: C35_44  and  C37_46
REMARK    5  A    between atoms: C37_46  and  C38_47
REMARK    6  A    between atoms: C42_51  and  O9_53
REMARK                            x       y       z     vdW  Elec       q    Type
REMARK                         _______ _______ _______ _____ _____    ______ ____
ROOT
ATOM      1  C1  UNL     1     -14.572  11.202 -11.032  0.00  0.00    +0.006 C 
ATOM      2  C2  UNL     1     -15.508  10.240 -10.333  0.00  0.00    +0.062 C 
ATOM      3  C3  UNL     1     -15.929   9.181 -11.330  0.00  0.00    +0.008 C 
ATOM      4  C4  UNL     1     -17.009   8.278 -10.771  0.00  0.00    +0.030 C 
ATOM      5  C5  UNL     1     -18.112   9.104 -10.142  0.00  0.00    +0.121 C 
ATOM      6  C6  UNL     1     -19.162   8.187  -9.557  0.00  0.00    +0.063 C 
ATOM      7  C7  UNL     1     -20.115   8.910  -8.625  0.00  0.00    +0.136 C 
ATOM      8  C8  UNL     1     -21.063   9.882  -9.253  0.00  0.00    -0.017 C 
ATOM      9  C9  UNL     1     -21.232  10.014 -10.575  0.00  0.00    -0.006 C 
ATOM     10  C10 UNL     1     -22.088  10.953 -11.237  0.00  0.00    -0.001 C 
ATOM     11  C11 UNL     1     -23.416  10.824 -11.297  0.00  0.00    -0.000 C 
ATOM     12  C12 UNL     1     -24.237  11.796 -11.949  0.00  0.00    -0.005 C 
ATOM     13  C13 UNL     1     -25.565  11.671 -11.998  0.00  0.00    -0.026 C 
ATOM     14  C14 UNL     1     -26.437  12.664 -12.672  0.00  0.00    +0.022 C 
ATOM     15  C15 UNL     1     -27.457  13.191 -11.695  0.00  0.00    +0.012 C 
ATOM     16  C16 UNL     1     -28.123  14.442 -12.223  0.00  0.00    +0.061 C 
ATOM     17  C17 UNL     1     -27.793  15.620 -11.343  0.00  0.00    +0.180 C 
ATOM     18  O1  UNL     1     -27.961  15.603 -10.121  0.00  0.00    -0.293 OA
ATOM     19  C18 UNL     1     -27.277  16.868 -12.031  0.00  0.00    +0.206 C 
ATOM     20  C19 UNL     1     -25.813  16.750 -12.417  0.00  0.00    +0.204 C 
ATOM     21  C20 UNL     1     -24.847  16.862 -11.283  0.00  0.00    -0.015 C 
ATOM     22  C21 UNL     1     -24.402  15.802 -10.600  0.00  0.00    -0.025 C 
ATOM     23  C22 UNL     1     -23.415  15.821  -9.484  0.00  0.00    +0.079 C 
ATOM     24  C23 UNL     1     -22.436  14.689  -9.695  0.00  0.00    +0.158 C 
ATOM     25  O2  UNL     1     -22.413  13.689  -8.978  0.00  0.00    -0.296 OA
ATOM     26  C24 UNL     1     -21.481  14.816 -10.850  0.00  0.00    +0.108 C 
ATOM     27  C25 UNL     1     -20.418  15.868 -10.633  0.00  0.00    +0.176 C 
ATOM     28  O3  UNL     1     -19.826  15.742  -9.347  0.00  0.00    -0.451 OA
ATOM     29  C26 UNL     1     -18.489  15.486  -9.454  0.00  0.00    +0.335 C 
ATOM     30  O4  UNL     1     -17.862  15.475 -10.511  0.00  0.00    -0.248 OA
ATOM     31  C27 UNL     1     -17.887  15.238  -8.077  0.00  0.00    +0.175 C 
ATOM     32  C28 UNL     1     -17.425  16.564  -7.502  0.00  0.00    +0.031 C 
ATOM     33  C29 UNL     1     -15.935  16.634  -7.244  0.00  0.00    +0.004 C 
ATOM     34  C30 UNL     1     -15.166  16.045  -8.403  0.00  0.00    +0.022 C 
ATOM     35  C31 UNL     1     -15.536  14.596  -8.656  0.00  0.00    +0.094 C 
ATOM     36  N1  UNL     1     -16.837  14.230  -8.133  0.00  0.00    -0.265 N 
ATOM     37  C32 UNL     1     -17.271  12.909  -8.143  0.00  0.00    +0.289 C 
ATOM     38  O5  UNL     1     -18.417  12.574  -7.868  0.00  0.00    -0.267 OA
ATOM     39  C33 UNL     1     -16.255  11.850  -8.552  0.00  0.00    +0.279 C 
ATOM     40  O6  UNL     1     -15.173  11.796  -7.969  0.00  0.00    -0.281 OA
ATOM     41  C34 UNL     1     -16.708  10.936  -9.691  0.00  0.00    +0.279 C 
ATOM     42  O7  UNL     1     -17.570   9.943  -9.132  0.00  0.00    -0.329 OA
ATOM     43  O8  UNL     1     -17.369  11.726 -10.673  0.00  0.00    -0.187 OA
ATOM     44  C45 UNL     1     -24.141  15.652  -8.170  0.00  0.00    +0.012 C 
ATOM     45  C46 UNL     1     -24.404  18.248 -10.970  0.00  0.00    +0.029 C 
ATOM     46  O11 UNL     1     -25.532  15.648 -13.255  0.00  0.00    -0.216 OA
ATOM     47  C48 UNL     1     -29.621  14.263 -12.230  0.00  0.00    +0.008 C 
ATOM     48  C49 UNL     1     -27.123  11.997 -13.834  0.00  0.00    +0.005 C 
ATOM     49  C50 UNL     1     -21.772  10.759  -8.276  0.00  0.00    +0.029 C 
ENDROOT
BRANCH  27  50
ATOM     50  C35 UNL     1     -20.917  17.274 -10.893  0.00  0.00    +0.041 C 
ATOM     51  C36 UNL     1     -21.144  17.482 -12.373  0.00  0.00    +0.004 C 
BRANCH  50  52
ATOM     52  C37 UNL     1     -19.961  18.324 -10.377  0.00  0.00    +0.004 C 
BRANCH  52  53
ATOM     53  C38 UNL     1     -20.673  19.332  -9.510  0.00  0.00    +0.003 C 
ATOM     54  C39 UNL     1     -21.631  18.604  -8.587  0.00  0.00    +0.003 C 
ATOM     55  C40 UNL     1     -22.648  19.521  -7.933  0.00  0.00    +0.035 C 
ATOM     56  C41 UNL     1     -22.351  20.997  -8.090  0.00  0.00    +0.179 C 
ATOM     57  C42 UNL     1     -22.143  21.393  -9.545  0.00  0.00    +0.146 C 
ATOM     58  C43 UNL     1     -21.413  20.341 -10.364  0.00  0.00    +0.032 C 
ATOM     59  O10 UNL     1     -21.174  21.315  -7.360  0.00  0.00    -0.221 OA
BRANCH  57  60
ATOM     60  O9  UNL     1     -23.393  21.614 -10.197  0.00  0.00    -0.351 OA
ATOM     61  C44 UNL     1     -23.147  21.777 -11.588  0.00  0.00    +0.174 C 
ENDBRANCH  57  60
ENDBRANCH  52  53
ENDBRANCH  50  52
ENDBRANCH  27  50
BRANCH  19  62
ATOM     62  O12 UNL     1     -28.066  17.262 -13.142  0.00  0.00    -0.343 OA
ATOM     63  C47 UNL     1     -29.115  18.076 -12.650  0.00  0.00    +0.175 C 
ENDBRANCH  19  62
BRANCH   7  64
ATOM     64  O13 UNL     1     -20.862   7.926  -7.922  0.00  0.00    -0.349 OA
ATOM     65  C51 UNL     1     -19.949   6.908  -7.538  0.00  0.00    +0.174 C 
ENDBRANCH   7  64
TORSDOF 6
ENDMDL
