MODEL 1
REMARK VINA RESULT:    -5.697      0.000      0.000
REMARK INTER + INTRA:          -7.144
REMARK INTER:                  -6.696
REMARK INTRA:                  -0.447
REMARK UNBOUND:                -0.447
REMARK  Name = /tmp/tmpwgq4y0ns/7YCE_candidate_0087.pdb
REMARK  3 active torsions:
REMARK  status: ('A' for Active; 'I' for Inactive)
REMARK    1  A    between atoms: C3_3  and  C5_7
REMARK    2  A    between atoms: N2_9  and  C6_10
REMARK    3  A    between atoms: C9_13  and  C12_16
REMARK                            x       y       z     vdW  Elec       q    Type
REMARK                         _______ _______ _______ _____ _____    ______ ____
ROOT
ATOM      1  C6  UNL     1     -15.580  -2.703 -15.578  0.00  0.00    +0.074 A 
ATOM      2  C7  UNL     1     -16.339  -1.629 -16.037  0.00  0.00    +0.017 A 
ATOM      3  C8  UNL     1     -17.696  -1.795 -16.306  0.00  0.00    +0.005 A 
ATOM      4  C9  UNL     1     -18.310  -3.032 -16.108  0.00  0.00    +0.072 A 
ATOM      5  C10 UNL     1     -17.542  -4.108 -15.660  0.00  0.00    +0.005 A 
ATOM      6  C11 UNL     1     -16.185  -3.945 -15.390  0.00  0.00    +0.017 A 
ENDROOT
BRANCH   4   7
ATOM      7  C12 UNL     1     -19.760  -3.218 -16.433  0.00  0.00    +0.419 C 
ATOM      8  F1  UNL     1     -20.460  -2.051 -16.450  0.00  0.00    -0.166 F 
ATOM      9  F2  UNL     1     -19.946  -3.786 -17.655  0.00  0.00    -0.166 F 
ATOM     10  F3  UNL     1     -20.406  -4.022 -15.544  0.00  0.00    -0.166 F 
ENDBRANCH   4   7
BRANCH   1  13
ATOM     11  C5  UNL     1     -13.186  -2.436 -16.194  0.00  0.00    +0.273 C 
ATOM     12  O2  UNL     1     -13.308  -2.343 -17.412  0.00  0.00    -0.268 OA
ATOM     13  N2  UNL     1     -14.214  -2.606 -15.288  0.00  0.00    -0.175 NA
BRANCH  11  16
ATOM     14  C1  UNL     1     -10.542  -4.272 -16.761  0.00  0.00    +0.076 C 
ATOM     15  C2  UNL     1     -10.800  -3.169 -15.824  0.00  0.00    +0.159 A 
ATOM     16  C3  UNL     1     -11.892  -2.375 -15.556  0.00  0.00    +0.111 A 
ATOM     17  C4  UNL     1     -11.427  -1.521 -14.533  0.00  0.00    +0.148 A 
ATOM     18  N1  UNL     1     -10.159  -1.768 -14.200  0.00  0.00    -0.076 NA
ATOM     19  O1  UNL     1      -9.763  -2.813 -15.021  0.00  0.00    -0.358 OA
ENDBRANCH  11  16
ENDBRANCH   1  13
TORSDOF 3
ENDMDL
