MODEL 1
REMARK VINA RESULT:    -6.679      0.000      0.000
REMARK INTER + INTRA:         -12.342
REMARK INTER:                  -9.412
REMARK INTRA:                  -2.931
REMARK UNBOUND:                -2.931
REMARK  Name = /tmp/tmp1lbzirdm/7YCE_candidate_0010.pdb
REMARK  7 active torsions:
REMARK  status: ('A' for Active; 'I' for Inactive)
REMARK    1  A    between atoms: C6_8  and  C7_10
REMARK    2  A    between atoms: C11_15  and  O2_41
REMARK    3  A    between atoms: C14_19  and  C19_27
REMARK    4  A    between atoms: C15_20  and  C18_23
REMARK    5  A    between atoms: C21_29  and  C27_38
REMARK    6  A    between atoms: O2_41  and  C28_42
REMARK    7  A    between atoms: C28_42  and  C29_43
REMARK                            x       y       z     vdW  Elec       q    Type
REMARK                         _______ _______ _______ _____ _____    ______ ____
ROOT
ATOM      1  C1  UNL     1     -13.732  13.430  -9.021  0.00  0.00    +0.023 C 
ATOM      2  C2  UNL     1     -15.002  12.820  -9.575  0.00  0.00    +0.095 C 
ATOM      3  C3  UNL     1     -15.895  13.954 -10.080  0.00  0.00    +0.112 C 
ATOM      4  N1  UNL     1     -17.247  13.499 -10.445  0.00  0.00    -0.291 N 
ATOM      5  C4  UNL     1     -17.882  12.592  -9.462  0.00  0.00    +0.094 C 
ATOM      6  C5  UNL     1     -17.020  12.366  -8.217  0.00  0.00    +0.113 C 
ATOM      7  N2  UNL     1     -15.660  11.991  -8.568  0.00  0.00    -0.274 N 
ATOM      8  C6  UNL     1     -15.261  10.714  -8.224  0.00  0.00    +0.249 C 
ATOM      9  O1  UNL     1     -15.926   9.978  -7.502  0.00  0.00    -0.270 OA
ATOM     10  C9  UNL     1     -18.152  11.257 -10.130  0.00  0.00    +0.023 C 
ATOM     11  C10 UNL     1     -18.079  14.647 -10.599  0.00  0.00    +0.138 A 
ATOM     12  N3  UNL     1     -17.650  15.823 -10.110  0.00  0.00    -0.179 NA
ATOM     13  C11 UNL     1     -18.450  16.880 -10.260  0.00  0.00    +0.321 A 
ATOM     14  N4  UNL     1     -19.634  16.878 -10.881  0.00  0.00    -0.192 NA
ATOM     15  C12 UNL     1     -20.059  15.712 -11.385  0.00  0.00    +0.116 A 
ATOM     16  C13 UNL     1     -21.283  15.632 -12.055  0.00  0.00    +0.158 A 
ATOM     17  C14 UNL     1     -21.785  14.444 -12.629  0.00  0.00    +0.033 A 
ATOM     18  C15 UNL     1     -21.007  13.281 -12.530  0.00  0.00    +0.074 A 
ATOM     19  C16 UNL     1     -19.785  13.356 -11.862  0.00  0.00    +0.008 A 
ATOM     20  C17 UNL     1     -19.306  14.543 -11.276  0.00  0.00    +0.052 A 
ATOM     21  F5  UNL     1     -22.033  16.747 -12.154  0.00  0.00    -0.203 F 
ENDROOT
BRANCH  17  22
ATOM     22  C19 UNL     1     -23.085  14.471 -13.311  0.00  0.00    +0.004 A 
ATOM     23  C20 UNL     1     -24.308  14.246 -12.594  0.00  0.00    +0.020 A 
ATOM     24  C21 UNL     1     -24.593  13.933 -11.205  0.00  0.00    +0.092 A 
ATOM     25  C22 UNL     1     -25.939  13.797 -10.937  0.00  0.00    +0.128 A 
ATOM     26  S1  UNL     1     -26.881  14.040 -12.333  0.00  0.00    -0.066 S 
ATOM     27  C23 UNL     1     -25.503  14.322 -13.324  0.00  0.00    +0.059 A 
ATOM     28  C24 UNL     1     -25.509  14.601 -14.704  0.00  0.00    +0.146 A 
ATOM     29  C25 UNL     1     -24.317  14.815 -15.379  0.00  0.00    +0.030 A 
ATOM     30  C26 UNL     1     -23.122  14.757 -14.687  0.00  0.00    +0.002 A 
ATOM     31  F4  UNL     1     -26.663  14.660 -15.386  0.00  0.00    -0.204 F 
ATOM     32  N5  UNL     1     -26.522  13.509  -9.745  0.00  0.00    -0.120 NA
BRANCH  24  33
ATOM     33  C27 UNL     1     -23.603  13.758 -10.183  0.00  0.00    +0.102 C 
ATOM     34  N6  UNL     1     -22.850  13.605  -9.312  0.00  0.00    -0.191 NA
ENDBRANCH  24  33
ENDBRANCH  17  22
BRANCH  18  35
ATOM     35  C18 UNL     1     -21.429  11.955 -13.101  0.00  0.00    +0.419 C 
ATOM     36  F1  UNL     1     -22.687  11.600 -12.717  0.00  0.00    -0.166 F 
ATOM     37  F2  UNL     1     -21.430  11.916 -14.462  0.00  0.00    -0.166 F 
ATOM     38  F3  UNL     1     -20.613  10.938 -12.703  0.00  0.00    -0.166 F 
ENDBRANCH  18  35
BRANCH   8  39
ATOM     39  C7  UNL     1     -13.970  10.274  -8.800  0.00  0.00    +0.058 C 
ATOM     40  C8  UNL     1     -14.052   9.305  -9.717  0.00  0.00    +0.005 C 
ENDBRANCH   8  39
BRANCH  13  41
ATOM     41  O2  UNL     1     -17.935  18.065  -9.786  0.00  0.00    -0.445 OA
BRANCH  41  42
ATOM     42  C28 UNL     1     -16.771  17.787  -9.016  0.00  0.00    +0.223 C 
BRANCH  42  43
ATOM     43  C29 UNL     1     -15.537  18.540  -9.511  0.00  0.00    +0.089 C 
ATOM     44  C30 UNL     1     -15.983  19.595 -10.505  0.00  0.00    +0.020 C 
ATOM     45  C31 UNL     1     -15.201  20.848 -10.179  0.00  0.00    +0.019 C 
ATOM     46  C32 UNL     1     -14.296  20.486  -9.022  0.00  0.00    +0.072 C 
ATOM     47  N7  UNL     1     -14.866  19.274  -8.427  0.00  0.00    -0.269 NA
ATOM     48  C33 UNL     1     -13.729  18.446  -7.996  0.00  0.00    +0.108 C 
ATOM     49  C34 UNL     1     -13.585  17.283  -8.969  0.00  0.00    +0.178 C 
ATOM     50  C35 UNL     1     -14.489  17.632 -10.126  0.00  0.00    +0.055 C 
ATOM     51  F6  UNL     1     -12.304  17.227  -9.431  0.00  0.00    -0.236 F 
ENDBRANCH  42  43
ENDBRANCH  41  42
ENDBRANCH  13  41
TORSDOF 7
ENDMDL
