MODEL 1
REMARK VINA RESULT:    -6.265      0.000      0.000
REMARK INTER + INTRA:         -11.164
REMARK INTER:                  -9.195
REMARK INTRA:                  -1.969
REMARK UNBOUND:                -1.969
REMARK  Name = /tmp/tmptj8j1zjl/7YCE_candidate_0009.pdb
REMARK  8 active torsions:
REMARK  status: ('A' for Active; 'I' for Inactive)
REMARK    1  A    between atoms: C4_5  and  C6_8
REMARK    2  A    between atoms: C10_13  and  C20_25
REMARK    3  A    between atoms: C11_14  and  C13_17
REMARK    4  A    between atoms: C20_25  and  C21_26
REMARK    5  A    between atoms: C21_26  and  C22_27
REMARK    6  A    between atoms: C26_32  and  C32_40
REMARK    7  A    between atoms: N5_33  and  C27_34
REMARK    8  A    between atoms: C32_40  and  N7_42
REMARK                            x       y       z     vdW  Elec       q    Type
REMARK                         _______ _______ _______ _____ _____    ______ ____
ROOT
ATOM      1  C6  UNL     1     -20.494  28.439 -17.630  0.00  0.00    +0.102 A 
ATOM      2  N3  UNL     1     -19.238  28.253 -18.141  0.00  0.00    -0.241 NA
ATOM      3  C7  UNL     1     -18.251  27.698 -17.416  0.00  0.00    +0.110 A 
ATOM      4  C8  UNL     1     -18.438  27.305 -16.081  0.00  0.00    +0.035 A 
ATOM      5  C9  UNL     1     -17.396  26.701 -15.358  0.00  0.00    -0.001 A 
ATOM      6  C10 UNL     1     -16.145  26.497 -15.934  0.00  0.00    -0.019 A 
ATOM      7  C11 UNL     1     -15.923  26.886 -17.263  0.00  0.00    +0.025 A 
ATOM      8  C12 UNL     1     -16.988  27.482 -17.971  0.00  0.00    +0.157 A 
ATOM      9  F1  UNL     1     -16.773  27.849 -19.248  0.00  0.00    -0.203 F 
ATOM     10  C23 UNL     1     -19.722  27.518 -15.517  0.00  0.00    +0.063 A 
ATOM     11  C24 UNL     1     -20.757  28.047 -16.301  0.00  0.00    +0.036 A 
ATOM     12  C25 UNL     1     -21.926  28.006 -15.498  0.00  0.00    +0.017 A 
ATOM     13  C26 UNL     1     -21.617  27.474 -14.267  0.00  0.00    +0.055 A 
ATOM     14  N5  UNL     1     -20.252  27.317 -14.249  0.00  0.00    -0.330 N 
ENDROOT
BRANCH   7  15
ATOM     15  C13 UNL     1     -14.627  26.682 -17.921  0.00  0.00    -0.001 A 
ATOM     16  C14 UNL     1     -13.560  27.590 -17.787  0.00  0.00    -0.011 A 
ATOM     17  C15 UNL     1     -12.348  27.335 -18.443  0.00  0.00    +0.054 A 
ATOM     18  C16 UNL     1     -12.189  26.193 -19.225  0.00  0.00    +0.011 A 
ATOM     19  C17 UNL     1     -13.237  25.291 -19.359  0.00  0.00    +0.001 A 
ATOM     20  C18 UNL     1     -14.444  25.536 -18.711  0.00  0.00    -0.000 A 
ATOM     21 CL1  UNL     1     -11.012  28.415 -18.326  0.00  0.00    -0.083 Cl
ATOM     22  C19 UNL     1     -13.715  28.817 -16.941  0.00  0.00    +0.032 C 
ENDBRANCH   7  15
BRANCH   1  27
ATOM     23  C1  UNL     1     -24.368  30.745 -21.041  0.00  0.00    +0.054 C 
ATOM     24  C2  UNL     1     -23.343  30.162 -20.135  0.00  0.00    +0.078 A 
ATOM     25  C3  UNL     1     -23.390  28.810 -19.831  0.00  0.00    +0.114 A 
ATOM     26  N1  UNL     1     -22.483  28.219 -19.018  0.00  0.00    -0.240 NA
ATOM     27  C4  UNL     1     -21.506  29.025 -18.515  0.00  0.00    +0.118 A 
ATOM     28  C5  UNL     1     -21.482  30.385 -18.823  0.00  0.00    +0.119 A 
ATOM     29  N2  UNL     1     -22.391  30.983 -19.636  0.00  0.00    -0.245 NA
ENDBRANCH   1  27
BRANCH  14  30
ATOM     30  C27 UNL     1     -19.447  26.857 -13.095  0.00  0.00    +0.102 C 
ATOM     31  C28 UNL     1     -18.183  27.710 -12.791  0.00  0.00    +0.041 C 
ATOM     32  C29 UNL     1     -18.327  27.075 -11.387  0.00  0.00    +0.023 C 
ATOM     33  C30 UNL     1     -19.841  27.328 -11.659  0.00  0.00    +0.094 C 
ATOM     34  N6  UNL     1     -19.880  28.807 -11.695  0.00  0.00    -0.217 NA
ATOM     35  C31 UNL     1     -18.694  29.110 -12.497  0.00  0.00    +0.091 C 
ENDBRANCH  14  30
BRANCH  13  36
ATOM     36  C32 UNL     1     -22.511  27.156 -13.131  0.00  0.00    +0.114 C 
ATOM     37  C33 UNL     1     -23.280  28.344 -12.610  0.00  0.00    +0.028 C 
BRANCH  36  38
ATOM     38  N7  UNL     1     -23.322  25.996 -13.407  0.00  0.00    -0.271 N 
ATOM     39  C34 UNL     1     -24.642  26.254 -13.943  0.00  0.00    +0.126 C 
ATOM     40  C35 UNL     1     -25.291  25.024 -14.556  0.00  0.00    +0.164 C 
ATOM     41  O1  UNL     1     -25.280  23.970 -13.599  0.00  0.00    -0.343 OA
ATOM     42  C36 UNL     1     -23.931  23.603 -13.374  0.00  0.00    +0.227 C 
ATOM     43  C37 UNL     1     -22.930  24.716 -13.040  0.00  0.00    +0.256 C 
ATOM     44  O2  UNL     1     -21.846  24.446 -12.526  0.00  0.00    -0.272 OA
ENDBRANCH  36  38
ENDBRANCH  13  36
BRANCH   6  45
ATOM     45  C20 UNL     1     -15.088  25.823 -15.114  0.00  0.00    +0.043 C 
BRANCH  45  46
ATOM     46  C21 UNL     1     -15.695  25.073 -13.949  0.00  0.00    +0.110 C 
BRANCH  46  47
ATOM     47  C22 UNL     1     -14.843  23.948 -13.577  0.00  0.00    +0.074 C 
ATOM     48  N4  UNL     1     -14.163  23.048 -13.304  0.00  0.00    -0.196 NA
ENDBRANCH  46  47
ENDBRANCH  45  46
ENDBRANCH   6  45
TORSDOF 8
ENDMDL
