MODEL 1
REMARK VINA RESULT:    -5.992      0.000      0.000
REMARK INTER + INTRA:         -12.208
REMARK INTER:                 -10.195
REMARK INTRA:                  -2.013
REMARK UNBOUND:                -2.013
REMARK  Name = /tmp/tmpi7xzqlgn/7YCE_candidate_0050.pdb
REMARK  12 active torsions:
REMARK  status: ('A' for Active; 'I' for Inactive)
REMARK    1  A    between atoms: C2_2  and  N1_3
REMARK    2  A    between atoms: C14_17  and  N6_46
REMARK    3  A    between atoms: C25_33  and  C26_34
REMARK    4  A    between atoms: C27_35  and  C31_40
REMARK    5  A    between atoms: C31_40  and  O5_42
REMARK    6  A    between atoms: C36_47  and  C37_49
REMARK    7  A    between atoms: C37_49  and  C38_50
REMARK    8  A    between atoms: C37_49  and  N7_53
REMARK    9  A    between atoms: C42_55  and  C43_57
REMARK   10  A    between atoms: C48_63  and  C49_65
REMARK   11  A    between atoms: C50_66  and  C51_67
REMARK   12  A    between atoms: C51_67  and  N9_70
REMARK                            x       y       z     vdW  Elec       q    Type
REMARK                         _______ _______ _______ _____ _____    ______ ____
ROOT
ATOM      1  N1  UNL     1     -33.122   5.301 -15.336  0.00  0.00    -0.327 N 
ATOM      2  C3  UNL     1     -33.118   5.949 -16.546  0.00  0.00    +0.060 A 
ATOM      3  C4  UNL     1     -33.983   5.248 -17.383  0.00  0.00    +0.014 A 
ATOM      4  C5  UNL     1     -34.216   5.745 -18.678  0.00  0.00    +0.016 A 
ATOM      5  C6  UNL     1     -33.589   6.915 -19.135  0.00  0.00    +0.048 A 
ATOM      6  C7  UNL     1     -32.692   7.547 -18.266  0.00  0.00    +0.016 A 
ATOM      7  C8  UNL     1     -32.447   7.104 -16.962  0.00  0.00    +0.018 A 
ATOM      8  N2  UNL     1     -33.799   7.384 -20.443  0.00  0.00    -0.303 N 
ATOM      9  C9  UNL     1     -33.385   8.767 -20.661  0.00  0.00    +0.123 C 
ATOM     10  C10 UNL     1     -33.779   9.300 -22.036  0.00  0.00    +0.163 C 
ATOM     11  O1  UNL     1     -34.231   8.283 -22.928  0.00  0.00    -0.353 OA
ATOM     12  C11 UNL     1     -35.369   7.641 -22.358  0.00  0.00    +0.137 C 
ATOM     13  C12 UNL     1     -35.091   6.995 -21.003  0.00  0.00    +0.121 C 
ATOM     14  C13 UNL     1     -35.920   6.612 -23.315  0.00  0.00    +0.062 C 
ATOM     15  C14 UNL     1     -34.840   5.968 -24.155  0.00  0.00    +0.175 C 
ATOM     16  C15 UNL     1     -34.625   4.548 -23.643  0.00  0.00    +0.260 C 
ATOM     17  O2  UNL     1     -35.459   3.659 -23.825  0.00  0.00    -0.272 OA
ATOM     18  N3  UNL     1     -33.442   4.377 -22.929  0.00  0.00    -0.205 N 
ATOM     19  C16 UNL     1     -32.413   5.401 -22.887  0.00  0.00    +0.113 C 
ATOM     20  C17 UNL     1     -31.429   5.187 -21.749  0.00  0.00    +0.025 C 
ATOM     21  C18 UNL     1     -31.924   4.167 -20.742  0.00  0.00    +0.033 C 
ATOM     22  C19 UNL     1     -32.354   2.885 -21.424  0.00  0.00    +0.192 C 
ATOM     23  N4  UNL     1     -33.023   3.055 -22.711  0.00  0.00    -0.118 NA
ATOM     24  C20 UNL     1     -33.188   1.989 -20.542  0.00  0.00    +0.335 C 
ATOM     25  O3  UNL     1     -32.980   0.785 -20.420  0.00  0.00    -0.248 OA
ATOM     26  O4  UNL     1     -34.195   2.664 -19.918  0.00  0.00    -0.448 OA
ATOM     27  C21 UNL     1     -35.059   1.768 -19.229  0.00  0.00    +0.209 C 
ATOM     28  C22 UNL     1     -34.883   1.812 -17.721  0.00  0.00    +0.045 C 
ATOM     29  C23 UNL     1     -35.427   3.114 -17.163  0.00  0.00    +0.031 C 
ATOM     30  C24 UNL     1     -34.462   4.119 -16.656  0.00  0.00    -0.005 A 
ATOM     31  C25 UNL     1     -33.896   4.165 -15.387  0.00  0.00    +0.057 A 
ATOM     32  C34 UNL     1     -33.450   1.515 -17.337  0.00  0.00    +0.004 C 
ATOM     33  C35 UNL     1     -35.738   0.701 -17.145  0.00  0.00    +0.004 C 
ENDROOT
BRANCH  31  34
ATOM     34  C26 UNL     1     -34.077   3.264 -14.250  0.00  0.00    +0.031 A 
ATOM     35  C27 UNL     1     -35.148   3.363 -13.355  0.00  0.00    +0.087 A 
ATOM     36  N5  UNL     1     -35.305   2.501 -12.311  0.00  0.00    -0.246 NA
ATOM     37  C28 UNL     1     -34.377   1.529 -12.155  0.00  0.00    +0.099 A 
ATOM     38  C29 UNL     1     -33.281   1.365 -12.981  0.00  0.00    +0.021 A 
ATOM     39  C30 UNL     1     -33.138   2.254 -14.037  0.00  0.00    +0.004 A 
BRANCH  35  40
ATOM     40  C31 UNL     1     -36.174   4.456 -13.527  0.00  0.00    +0.155 C 
ATOM     41  C32 UNL     1     -36.455   5.180 -12.227  0.00  0.00    +0.039 C 
BRANCH  40  42
ATOM     42  O5  UNL     1     -37.381   3.940 -14.075  0.00  0.00    -0.348 OA
ATOM     43  C33 UNL     1     -37.885   4.903 -14.994  0.00  0.00    +0.175 C 
ENDBRANCH  40  42
ENDBRANCH  35  40
ENDBRANCH  31  34
BRANCH  15  44
ATOM     44  N6  UNL     1     -35.284   5.875 -25.527  0.00  0.00    -0.196 NA
ATOM     45  C36 UNL     1     -34.368   6.080 -26.534  0.00  0.00    +0.260 C 
ATOM     46  O6  UNL     1     -33.209   6.439 -26.333  0.00  0.00    -0.272 OA
BRANCH  45  47
ATOM     47  C37 UNL     1     -34.938   5.733 -27.910  0.00  0.00    +0.154 C 
BRANCH  47  48
ATOM     48  N7  UNL     1     -35.354   4.361 -28.115  0.00  0.00    -0.269 N 
ATOM     49  C41 UNL     1     -36.619   3.934 -27.557  0.00  0.00    +0.115 C 
ATOM     50  C42 UNL     1     -34.494   3.518 -28.790  0.00  0.00    +0.256 C 
ATOM     51  O7  UNL     1     -33.403   3.921 -29.199  0.00  0.00    -0.272 OA
BRANCH  50  52
ATOM     52  C43 UNL     1     -34.978   2.081 -29.051  0.00  0.00    +0.205 C 
ATOM     53  C44 UNL     1     -36.334   2.088 -29.731  0.00  0.00    +0.063 C 
ATOM     54  C45 UNL     1     -36.247   2.622 -31.143  0.00  0.00    +0.098 C 
ATOM     55  N8  UNL     1     -35.233   1.930 -31.897  0.00  0.00    -0.269 N 
ATOM     56  C46 UNL     1     -33.913   1.825 -31.316  0.00  0.00    +0.098 C 
ATOM     57  C47 UNL     1     -33.976   1.310 -29.893  0.00  0.00    +0.063 C 
ATOM     58  C48 UNL     1     -35.426   1.842 -33.264  0.00  0.00    +0.292 C 
ATOM     59  O8  UNL     1     -36.480   2.134 -33.819  0.00  0.00    -0.260 OA
ATOM     60  F1  UNL     1     -35.122   1.399 -27.870  0.00  0.00    -0.231 F 
BRANCH  58  61
ATOM     61  C49 UNL     1     -34.325   1.360 -34.068  0.00  0.00    -0.006 C 
ATOM     62  C50 UNL     1     -33.408   0.976 -34.744  0.00  0.00    -0.069 C 
BRANCH  62  63
ATOM     63  C51 UNL     1     -32.287   0.537 -35.589  0.00  0.00    +0.100 C 
ATOM     64  C52 UNL     1     -32.816  -0.379 -36.678  0.00  0.00    +0.029 C 
ATOM     65  C53 UNL     1     -31.692   1.747 -36.288  0.00  0.00    +0.029 C 
BRANCH  63  66
ATOM     66  N9  UNL     1     -31.228  -0.159 -34.851  0.00  0.00    -0.263 NA
ATOM     67  C54 UNL     1     -29.909   0.193 -35.360  0.00  0.00    +0.090 C 
ATOM     68  C55 UNL     1     -31.355  -1.604 -34.966  0.00  0.00    +0.090 C 
ENDBRANCH  63  66
ENDBRANCH  62  63
ENDBRANCH  58  61
ENDBRANCH  50  52
ENDBRANCH  47  48
BRANCH  47  69
ATOM     69  C38 UNL     1     -35.945   6.721 -28.462  0.00  0.00    +0.027 C 
ATOM     70  C39 UNL     1     -36.079   6.617 -29.960  0.00  0.00    +0.002 C 
ATOM     71  C40 UNL     1     -35.687   8.148 -28.045  0.00  0.00    +0.002 C 
ENDBRANCH  47  69
ENDBRANCH  45  47
ENDBRANCH  15  44
BRANCH   1  73
ATOM     72  C1  UNL     1     -33.232   6.791 -13.413  0.00  0.00    +0.026 C 
ATOM     73  C2  UNL     1     -32.403   5.778 -14.167  0.00  0.00    +0.106 C 
ENDBRANCH   1  73
TORSDOF 12
ENDMDL
