MODEL 1
REMARK VINA RESULT:    -3.373      0.000      0.000
REMARK INTER + INTRA:          -3.373
REMARK INTER:                  -3.373
REMARK INTRA:                   0.000
REMARK UNBOUND:                 0.000
REMARK  Name = /tmp/tmpaufp4fnt/7YCE_candidate_0081.pdb
REMARK  0 active torsions:
REMARK  status: ('A' for Active; 'I' for Inactive)
REMARK                            x       y       z     vdW  Elec       q    Type
REMARK                         _______ _______ _______ _____ _____    ______ ____
ROOT
ATOM      1  C1  UNL     1     -16.118  -2.464 -16.461  0.00  0.00    +0.042 A 
ATOM      2  C2  UNL     1     -16.207  -1.098 -16.338  0.00  0.00    +0.104 A 
ATOM      3  N1  UNL     1     -17.360  -0.405 -16.320  0.00  0.00    -0.200 NA
ATOM      4  C3  UNL     1     -18.475  -1.139 -16.433  0.00  0.00    +0.310 A 
ATOM      5  N2  UNL     1     -18.524  -2.472 -16.558  0.00  0.00    -0.200 NA
ATOM      6  C4  UNL     1     -17.333  -3.096 -16.569  0.00  0.00    +0.104 A 
ATOM      7  F1  UNL     1     -19.643  -0.482 -16.419  0.00  0.00    -0.161 F 
ENDROOT
TORSDOF 0
ENDMDL
