MODEL 1
REMARK VINA RESULT:    -6.599      0.000      0.000
REMARK INTER + INTRA:         -10.359
REMARK INTER:                  -9.299
REMARK INTRA:                  -1.060
REMARK UNBOUND:                -1.060
REMARK  Name = /tmp/tmpw7lc2lgc/7YCE_candidate_0043.pdb
REMARK  7 active torsions:
REMARK  status: ('A' for Active; 'I' for Inactive)
REMARK    1  A    between atoms: N1_2  and  C3_4
REMARK    2  A    between atoms: C3_4  and  C4_5
REMARK    3  A    between atoms: C5_6  and  C6_7
REMARK    4  A    between atoms: N2_9  and  C7_10
REMARK    5  A    between atoms: C8_11  and  O2_29
REMARK    6  A    between atoms: N5_20  and  C15_21
REMARK    7  A    between atoms: O2_29  and  C21_30
REMARK                            x       y       z     vdW  Elec       q    Type
REMARK                         _______ _______ _______ _____ _____    ______ ____
ROOT
ATOM      1  C7  UNL     1     -10.466  -1.906 -14.299  0.00  0.00    +0.108 A 
ATOM      2  C8  UNL     1      -9.488  -2.610 -15.007  0.00  0.00    +0.155 A 
ATOM      3  C9  UNL     1      -9.883  -3.419 -16.075  0.00  0.00    +0.057 A 
ATOM      4  C10 UNL     1     -11.206  -3.542 -16.477  0.00  0.00    +0.089 A 
ATOM      5  C11 UNL     1     -12.173  -2.803 -15.794  0.00  0.00    +0.053 A 
ATOM      6  C12 UNL     1     -11.792  -1.984 -14.716  0.00  0.00    +0.024 A 
ATOM      7  C13 UNL     1     -13.492  -2.939 -16.242  0.00  0.00    +0.155 A 
ATOM      8  N3  UNL     1     -13.803  -3.744 -17.276  0.00  0.00    -0.207 NA
ATOM      9  C14 UNL     1     -12.797  -4.409 -17.855  0.00  0.00    +0.200 A 
ATOM     10  N4  UNL     1     -11.509  -4.341 -17.501  0.00  0.00    -0.224 NA
ATOM     11  N5  UNL     1     -14.498  -2.194 -15.562  0.00  0.00    -0.194 NA
ENDROOT
BRANCH  11  12
ATOM     12  C15 UNL     1     -15.885  -2.156 -15.821  0.00  0.00    +0.073 A 
ATOM     13  C16 UNL     1     -16.728  -3.260 -15.689  0.00  0.00    +0.030 A 
ATOM     14  C17 UNL     1     -18.090  -3.154 -15.961  0.00  0.00    +0.086 A 
ATOM     15  C18 UNL     1     -18.622  -1.937 -16.368  0.00  0.00    +0.151 A 
ATOM     16  C19 UNL     1     -17.802  -0.823 -16.507  0.00  0.00    +0.032 A 
ATOM     17  C20 UNL     1     -16.441  -0.938 -16.233  0.00  0.00    +0.019 A 
ATOM     18  F1  UNL     1     -19.931  -1.813 -16.635  0.00  0.00    -0.203 F 
ATOM     19 CL1  UNL     1     -19.082  -4.546 -15.785  0.00  0.00    -0.080 Cl
ENDBRANCH  11  12
BRANCH   1  22
ATOM     20  C6  UNL     1      -9.589  -1.466 -12.026  0.00  0.00    +0.269 C 
ATOM     21  O1  UNL     1      -9.401  -2.606 -11.614  0.00  0.00    -0.268 OA
ATOM     22  N2  UNL     1     -10.211  -1.081 -13.195  0.00  0.00    -0.172 NA
BRANCH  20  24
ATOM     23  C4  UNL     1      -9.546   0.897 -11.732  0.00  0.00    -0.004 C 
ATOM     24  C5  UNL     1      -9.235  -0.293 -11.202  0.00  0.00    +0.057 C 
BRANCH  23  25
ATOM     25  C3  UNL     1      -9.314   2.232 -11.121  0.00  0.00    +0.099 C 
BRANCH  25  27
ATOM     26  C1  UNL     1      -8.467   4.415 -11.186  0.00  0.00    +0.090 C 
ATOM     27  N1  UNL     1      -8.684   3.217 -11.982  0.00  0.00    -0.267 NA
ATOM     28  C2  UNL     1      -7.372   2.698 -12.323  0.00  0.00    +0.090 C 
ENDBRANCH  25  27
ENDBRANCH  23  25
ENDBRANCH  20  24
ENDBRANCH   1  22
BRANCH   2  29
ATOM     29  O2  UNL     1      -8.173  -2.386 -14.703  0.00  0.00    -0.475 OA
BRANCH  29  30
ATOM     30  C21 UNL     1      -7.297  -3.493 -14.701  0.00  0.00    +0.198 C 
ATOM     31  C22 UNL     1      -6.163  -3.473 -15.676  0.00  0.00    +0.078 C 
ATOM     32  C23 UNL     1      -5.186  -4.451 -15.061  0.00  0.00    +0.146 C 
ATOM     33  O3  UNL     1      -5.529  -4.652 -13.685  0.00  0.00    -0.350 OA
ATOM     34  C24 UNL     1      -6.709  -3.902 -13.379  0.00  0.00    +0.185 C 
ENDBRANCH  29  30
ENDBRANCH   2  29
TORSDOF 7
ENDMDL
