MODEL 1
REMARK VINA RESULT:    -6.613      0.000      0.000
REMARK INTER + INTRA:          -9.832
REMARK INTER:                  -8.546
REMARK INTRA:                  -1.286
REMARK UNBOUND:                -1.286
REMARK  Name = /tmp/tmprx3dr6th/7YCE_candidate_0029.pdb
REMARK  5 active torsions:
REMARK  status: ('A' for Active; 'I' for Inactive)
REMARK    1  A    between atoms: C2_2  and  C3_3
REMARK    2  A    between atoms: C2_2  and  O1_12
REMARK    3  A    between atoms: O1_12  and  C9_13
REMARK    4  A    between atoms: C12_17  and  C14_19
REMARK    5  A    between atoms: N2_21  and  C17_24
REMARK                            x       y       z     vdW  Elec       q    Type
REMARK                         _______ _______ _______ _____ _____    ______ ____
ROOT
ATOM      1  C9  UNL     1     -15.613  -5.215 -17.811  0.00  0.00    +0.173 A 
ATOM      2  C10 UNL     1     -15.646  -5.423 -19.196  0.00  0.00    +0.204 A 
ATOM      3  N1  UNL     1     -14.535  -5.310 -19.967  0.00  0.00    -0.223 NA
ATOM      4  C11 UNL     1     -13.373  -4.989 -19.353  0.00  0.00    +0.101 A 
ATOM      5  C12 UNL     1     -13.242  -4.769 -17.993  0.00  0.00    +0.025 A 
ATOM      6  C13 UNL     1     -14.391  -4.892 -17.223  0.00  0.00    +0.042 A 
ATOM      7  N5  UNL     1     -16.873  -5.754 -19.813  0.00  0.00    -0.104 NA
ENDROOT
BRANCH   5   8
ATOM      8  C14 UNL     1     -11.981  -4.429 -17.386  0.00  0.00    +0.041 A 
ATOM      9  C15 UNL     1     -11.818  -3.542 -16.344  0.00  0.00    +0.097 A 
ATOM     10  N2  UNL     1     -10.479  -3.512 -16.083  0.00  0.00    -0.251 N 
ATOM     11  N3  UNL     1      -9.752  -4.314 -16.876  0.00  0.00    -0.168 NA
ATOM     12  C16 UNL     1     -10.669  -4.876 -17.668  0.00  0.00    +0.122 A 
BRANCH  10  13
ATOM     13  C17 UNL     1      -9.808  -2.735 -15.067  0.00  0.00    +0.108 C 
ATOM     14  C18 UNL     1     -10.654  -1.560 -14.619  0.00  0.00    +0.043 C 
ATOM     15  C19 UNL     1     -10.846  -1.558 -13.118  0.00  0.00    +0.091 C 
ATOM     16  N4  UNL     1      -9.560  -1.597 -12.441  0.00  0.00    -0.218 NA
ATOM     17  C20 UNL     1      -8.777  -2.770 -12.802  0.00  0.00    +0.091 C 
ATOM     18  C21 UNL     1      -9.361  -3.610 -13.917  0.00  0.00    +0.043 C 
ENDBRANCH  10  13
ENDBRANCH   5   8
BRANCH   1  19
ATOM     19  O1  UNL     1     -16.775  -5.344 -17.096  0.00  0.00    -0.472 OA
BRANCH  19  21
ATOM     20  C1  UNL     1     -17.302  -5.376 -14.744  0.00  0.00    +0.052 C 
ATOM     21  C2  UNL     1     -16.777  -4.565 -15.905  0.00  0.00    +0.190 C 
BRANCH  21  22
ATOM     22  C3  UNL     1     -17.525  -3.279 -16.104  0.00  0.00    +0.041 A 
ATOM     23  C4  UNL     1     -18.908  -3.219 -16.352  0.00  0.00    +0.058 A 
ATOM     24  C5  UNL     1     -19.550  -1.993 -16.543  0.00  0.00    +0.014 A 
ATOM     25  C6  UNL     1     -18.831  -0.805 -16.492  0.00  0.00    +0.031 A 
ATOM     26  C7  UNL     1     -17.466  -0.849 -16.247  0.00  0.00    +0.150 A 
ATOM     27  C8  UNL     1     -16.812  -2.069 -16.053  0.00  0.00    +0.085 A 
ATOM     28 CL1  UNL     1     -15.110  -2.057 -15.743  0.00  0.00    -0.080 Cl
ATOM     29  F1  UNL     1     -16.785   0.306 -16.196  0.00  0.00    -0.203 F 
ATOM     30 CL2  UNL     1     -19.904  -4.623 -16.435  0.00  0.00    -0.082 Cl
ENDBRANCH  21  22
ENDBRANCH  19  21
ENDBRANCH   1  19
TORSDOF 5
ENDMDL
