MODEL 1
REMARK VINA RESULT:    -6.663      0.000      0.000
REMARK INTER + INTRA:          -9.891
REMARK INTER:                  -8.221
REMARK INTRA:                  -1.670
REMARK UNBOUND:                -1.670
REMARK  Name = /tmp/tmpzpjipec5/7YCE_candidate_0064.pdb
REMARK  4 active torsions:
REMARK  status: ('A' for Active; 'I' for Inactive)
REMARK    1  A    between atoms: C7_9  and  C9_12
REMARK    2  A    between atoms: N3_14  and  C20_27
REMARK    3  A    between atoms: C11_16  and  C12_17
REMARK    4  A    between atoms: C26_34  and  C27_36
REMARK                            x       y       z     vdW  Elec       q    Type
REMARK                         _______ _______ _______ _____ _____    ______ ____
ROOT
ATOM      1  C9  UNL     1     -15.256  27.114 -16.863  0.00  0.00    +0.033 A 
ATOM      2  C10 UNL     1     -16.388  27.553 -17.522  0.00  0.00    +0.057 A 
ATOM      3  N3  UNL     1     -17.435  26.979 -16.863  0.00  0.00    -0.257 N 
ATOM      4  N4  UNL     1     -17.071  26.210 -15.826  0.00  0.00    -0.170 NA
ATOM      5  C11 UNL     1     -15.728  26.265 -15.810  0.00  0.00    +0.102 A 
ATOM      6  C29 UNL     1     -16.571  28.432 -18.692  0.00  0.00    +0.052 C 
ENDROOT
BRANCH   1  15
ATOM      7  C1  UNL     1     -10.829  26.201 -19.119  0.00  0.00    +0.032 C 
ATOM      8  C2  UNL     1     -11.763  27.069 -18.337  0.00  0.00    -0.010 A 
ATOM      9  C3  UNL     1     -11.280  28.320 -17.931  0.00  0.00    +0.018 A 
ATOM     10  C4  UNL     1     -12.147  29.127 -17.197  0.00  0.00    +0.104 A 
ATOM     11  C5  UNL     1     -13.438  28.748 -16.854  0.00  0.00    +0.041 A 
ATOM     12  C6  UNL     1     -13.936  29.849 -16.117  0.00  0.00    +0.124 A 
ATOM     13  N1  UNL     1     -13.051  30.842 -16.005  0.00  0.00    -0.146 NA
ATOM     14  N2  UNL     1     -11.978  30.374 -16.660  0.00  0.00    -0.148 NA
ATOM     15  C7  UNL     1     -13.915  27.485 -17.262  0.00  0.00    +0.016 A 
ATOM     16  C8  UNL     1     -13.062  26.651 -18.012  0.00  0.00    +0.054 A 
ATOM     17 CL1  UNL     1     -13.603  25.092 -18.547  0.00  0.00    -0.083 Cl
ENDBRANCH   1  15
BRANCH   5  18
ATOM     18  C12 UNL     1     -14.965  25.528 -14.805  0.00  0.00    +0.020 A 
ATOM     19  C13 UNL     1     -13.567  25.612 -14.766  0.00  0.00    +0.005 A 
ATOM     20  C14 UNL     1     -12.859  24.883 -13.801  0.00  0.00    +0.038 A 
ATOM     21  C15 UNL     1     -13.559  24.092 -12.895  0.00  0.00    +0.079 A 
ATOM     22  C16 UNL     1     -14.952  23.989 -12.894  0.00  0.00    +0.019 A 
ATOM     23  C17 UNL     1     -15.630  24.726 -13.870  0.00  0.00    +0.003 A 
ATOM     24  N5  UNL     1     -12.596  23.523 -12.112  0.00  0.00    -0.249 N 
ATOM     25  N6  UNL     1     -11.338  23.873 -12.425  0.00  0.00    -0.168 NA
ATOM     26  C18 UNL     1     -11.501  24.706 -13.458  0.00  0.00    +0.122 A 
ATOM     27  C19 UNL     1     -12.821  22.612 -11.010  0.00  0.00    +0.154 C 
ENDBRANCH   5  18
BRANCH   3  28
ATOM     28  C20 UNL     1     -18.842  27.195 -17.244  0.00  0.00    +0.105 C 
ATOM     29  C21 UNL     1     -19.550  25.875 -17.621  0.00  0.00    +0.028 C 
ATOM     30  C22 UNL     1     -20.356  26.001 -16.367  0.00  0.00    +0.040 C 
ATOM     31  C23 UNL     1     -19.750  27.320 -16.003  0.00  0.00    +0.028 C 
ATOM     32  C24 UNL     1     -21.841  25.898 -16.451  0.00  0.00    +0.095 C 
ATOM     33  N7  UNL     1     -21.730  24.852 -15.434  0.00  0.00    -0.276 N 
ATOM     34  C25 UNL     1     -20.270  24.894 -15.367  0.00  0.00    +0.095 C 
ATOM     35  C26 UNL     1     -22.625  24.632 -14.420  0.00  0.00    +0.249 C 
ATOM     36  O1  UNL     1     -23.774  25.057 -14.417  0.00  0.00    -0.270 OA
BRANCH  35  37
ATOM     37  C27 UNL     1     -22.058  23.815 -13.321  0.00  0.00    +0.058 C 
ATOM     38  C28 UNL     1     -22.214  22.491 -13.377  0.00  0.00    +0.005 C 
ENDBRANCH  35  37
ENDBRANCH   3  28
TORSDOF 4
ENDMDL
