MODEL 1
REMARK VINA RESULT:    -5.457      0.000      0.000
REMARK INTER + INTRA:          -6.703
REMARK INTER:                  -6.415
REMARK INTRA:                  -0.288
REMARK UNBOUND:                -0.288
REMARK  Name = /tmp/tmp29n_2dpi/7YCE_candidate_0077.pdb
REMARK  3 active torsions:
REMARK  status: ('A' for Active; 'I' for Inactive)
REMARK    1  A    between atoms: C3_3  and  C10_18
REMARK    2  A    between atoms: C4_5  and  N1_6
REMARK    3  A    between atoms: C6_8  and  C9_14
REMARK                            x       y       z     vdW  Elec       q    Type
REMARK                         _______ _______ _______ _____ _____    ______ ____
ROOT
ATOM      1  N1  UNL     1     -15.687  -4.033 -15.401  0.00  0.00    -0.256 N 
ATOM      2  C5  UNL     1     -15.937  -2.732 -15.748  0.00  0.00    +0.091 A 
ATOM      3  C6  UNL     1     -17.142  -2.304 -16.130  0.00  0.00    +0.146 A 
ATOM      4  C7  UNL     1     -18.246  -3.268 -16.184  0.00  0.00    +0.288 A 
ATOM      5  O2  UNL     1     -19.379  -2.922 -16.500  0.00  0.00    -0.265 OA
ATOM      6  N2  UNL     1     -17.915  -4.563 -15.851  0.00  0.00    -0.153 NA
ATOM      7  C8  UNL     1     -16.667  -5.017 -15.462  0.00  0.00    +0.355 A 
ATOM      8  O3  UNL     1     -16.458  -6.197 -15.181  0.00  0.00    -0.244 OA
ENDROOT
BRANCH   1  13
ATOM      9  C1  UNL     1     -13.472  -4.746 -16.300  0.00  0.00    +0.089 C 
ATOM     10  C2  UNL     1     -12.518  -3.590 -16.428  0.00  0.00    +0.186 C 
ATOM     11  C3  UNL     1     -12.421  -3.064 -15.018  0.00  0.00    +0.180 C 
ATOM     12  O1  UNL     1     -13.708  -3.269 -14.423  0.00  0.00    -0.332 OA
ATOM     13  C4  UNL     1     -14.314  -4.365 -15.102  0.00  0.00    +0.211 C 
ATOM     14  O5  UNL     1     -11.256  -4.056 -16.866  0.00  0.00    -0.220 OA
BRANCH  11  15
ATOM     15  C10 UNL     1     -12.060  -1.595 -15.029  0.00  0.00    +0.214 C 
ATOM     16  O4  UNL     1     -11.333  -1.278 -13.852  0.00  0.00    -0.218 OA
ENDBRANCH  11  15
ENDBRANCH   1  13
BRANCH   3  17
ATOM     17  C9  UNL     1     -17.452  -0.914 -16.508  0.00  0.00    +0.424 C 
ATOM     18  F1  UNL     1     -18.518  -0.417 -15.832  0.00  0.00    -0.166 F 
ATOM     19  F2  UNL     1     -16.412  -0.078 -16.230  0.00  0.00    -0.166 F 
ATOM     20  F3  UNL     1     -17.700  -0.774 -17.833  0.00  0.00    -0.166 F 
ENDBRANCH   3  17
TORSDOF 3
ENDMDL
