MODEL 1
REMARK VINA RESULT:    -5.292      0.000      0.000
REMARK INTER + INTRA:          -9.843
REMARK INTER:                  -8.385
REMARK INTRA:                  -1.458
REMARK UNBOUND:                -1.458
REMARK  Name = /tmp/tmphahrbef8/7YCE_candidate_0033.pdb
REMARK  10 active torsions:
REMARK  status: ('A' for Active; 'I' for Inactive)
REMARK    1  A    between atoms: O1_2  and  C2_3
REMARK    2  A    between atoms: C2_3  and  C3_4
REMARK    3  A    between atoms: C3_4  and  O2_5
REMARK    4  A    between atoms: O2_5  and  C4_6
REMARK    5  A    between atoms: C5_7  and  O3_25
REMARK    6  A    between atoms: N3_16  and  C12_17
REMARK    7  A    between atoms: C16_21  and  C18_23
REMARK    8  A    between atoms: O3_25  and  C20_26
REMARK    9  A    between atoms: C20_26  and  C21_27
REMARK   10  A    between atoms: C21_27  and  O4_28
REMARK                            x       y       z     vdW  Elec       q    Type
REMARK                         _______ _______ _______ _____ _____    ______ ____
ROOT
ATOM      1  C4  UNL     1     -18.367  25.775 -15.848  0.00  0.00    +0.173 A 
ATOM      2  C5  UNL     1     -19.659  25.801 -16.371  0.00  0.00    +0.174 A 
ATOM      3  C6  UNL     1     -19.918  26.573 -17.508  0.00  0.00    +0.059 A 
ATOM      4  C7  UNL     1     -18.935  27.312 -18.154  0.00  0.00    +0.089 A 
ATOM      5  C8  UNL     1     -17.637  27.268 -17.642  0.00  0.00    +0.054 A 
ATOM      6  C9  UNL     1     -17.374  26.515 -16.485  0.00  0.00    +0.044 A 
ATOM      7  C10 UNL     1     -16.670  28.010 -18.335  0.00  0.00    +0.155 A 
ATOM      8  N1  UNL     1     -16.989  28.758 -19.409  0.00  0.00    -0.207 NA
ATOM      9  C11 UNL     1     -18.265  28.733 -19.806  0.00  0.00    +0.200 A 
ATOM     10  N2  UNL     1     -19.252  28.034 -19.231  0.00  0.00    -0.224 NA
ATOM     11  N3  UNL     1     -15.320  28.034 -17.902  0.00  0.00    -0.194 NA
ENDROOT
BRANCH  11  12
ATOM     12  C12 UNL     1     -14.467  26.912 -17.794  0.00  0.00    +0.073 A 
ATOM     13  C13 UNL     1     -13.465  26.817 -16.823  0.00  0.00    +0.017 A 
ATOM     14  C14 UNL     1     -12.643  25.693 -16.748  0.00  0.00    +0.002 A 
ATOM     15  C15 UNL     1     -12.825  24.643 -17.644  0.00  0.00    +0.008 A 
ATOM     16  C16 UNL     1     -13.828  24.718 -18.607  0.00  0.00    +0.044 A 
ATOM     17  C17 UNL     1     -14.648  25.844 -18.678  0.00  0.00    +0.025 A 
BRANCH  16  18
ATOM     18  C18 UNL     1     -14.019  23.643 -19.526  0.00  0.00    -0.051 C 
ATOM     19  C19 UNL     1     -14.186  22.737 -20.296  0.00  0.00    -0.009 C 
ENDBRANCH  16  18
ENDBRANCH  11  12
BRANCH   1  20
ATOM     20  O2  UNL     1     -18.124  25.004 -14.741  0.00  0.00    -0.470 OA
BRANCH  20  21
ATOM     21  C3  UNL     1     -17.433  25.745 -13.736  0.00  0.00    +0.237 C 
BRANCH  21  22
ATOM     22  C2  UNL     1     -16.266  24.922 -13.236  0.00  0.00    +0.189 C 
BRANCH  22  24
ATOM     23  C1  UNL     1     -14.252  24.000 -13.781  0.00  0.00    +0.174 C 
ATOM     24  O1  UNL     1     -15.291  24.836 -14.265  0.00  0.00    -0.347 OA
ENDBRANCH  22  24
ENDBRANCH  21  22
ENDBRANCH  20  21
ENDBRANCH   1  20
BRANCH   2  25
ATOM     25  O3  UNL     1     -20.619  25.056 -15.736  0.00  0.00    -0.470 OA
BRANCH  25  26
ATOM     26  C20 UNL     1     -21.841  25.032 -16.470  0.00  0.00    +0.237 C 
BRANCH  26  27
ATOM     27  C21 UNL     1     -22.966  25.402 -15.524  0.00  0.00    +0.189 C 
BRANCH  27  28
ATOM     28  O4  UNL     1     -22.505  25.280 -14.186  0.00  0.00    -0.347 OA
ATOM     29  C22 UNL     1     -23.386  24.375 -13.535  0.00  0.00    +0.174 C 
ENDBRANCH  27  28
ENDBRANCH  26  27
ENDBRANCH  25  26
ENDBRANCH   2  25
TORSDOF 10
ENDMDL
