MODEL 1
REMARK VINA RESULT:    -5.852      0.000      0.000
REMARK INTER + INTRA:          -7.347
REMARK INTER:                  -6.879
REMARK INTRA:                  -0.469
REMARK UNBOUND:                -0.469
REMARK  Name = /tmp/tmp174igyy3/7YCE_candidate_0046.pdb
REMARK  3 active torsions:
REMARK  status: ('A' for Active; 'I' for Inactive)
REMARK    1  A    between atoms: C11_13  and  S1_18
REMARK    2  A    between atoms: C12_15  and  C13_16
REMARK    3  A    between atoms: S1_18  and  C14_19
REMARK                            x       y       z     vdW  Elec       q    Type
REMARK                         _______ _______ _______ _____ _____    ______ ____
ROOT
ATOM      1  C1  UNL     1     -16.411   8.668 -10.862  0.00  0.00    +0.034 C 
ATOM      2  C2  UNL     1     -17.610   7.847 -10.441  0.00  0.00    +0.133 C 
ATOM      3  C3  UNL     1     -18.406   8.459  -9.309  0.00  0.00    +0.121 C 
ATOM      4  C4  UNL     1     -19.494   9.255  -9.975  0.00  0.00    +0.049 C 
ATOM      5  C5  UNL     1     -19.023  10.641 -10.404  0.00  0.00    +0.025 C 
ATOM      6  C6  UNL     1     -20.153  11.461 -10.994  0.00  0.00    +0.092 C 
ATOM      7  N1  UNL     1     -21.247  11.534 -10.027  0.00  0.00    -0.292 N 
ATOM      8  C7  UNL     1     -21.802  10.219  -9.726  0.00  0.00    +0.092 C 
ATOM      9  C8  UNL     1     -20.726   9.356  -9.095  0.00  0.00    +0.025 C 
ATOM     10  C9  UNL     1     -22.253  12.349 -10.599  0.00  0.00    +0.148 A 
ATOM     11  N2  UNL     1     -23.392  11.777 -11.054  0.00  0.00    -0.232 NA
ATOM     12  C10 UNL     1     -24.326  12.597 -11.608  0.00  0.00    +0.084 A 
ATOM     13  C11 UNL     1     -24.150  13.975 -11.707  0.00  0.00    +0.124 A 
ATOM     14  N3  UNL     1     -23.030  14.567 -11.232  0.00  0.00    -0.237 NA
ATOM     15  C12 UNL     1     -22.092  13.740 -10.688  0.00  0.00    +0.124 A 
ATOM     16  C19 UNL     1     -25.560  11.927 -12.115  0.00  0.00    +0.054 C 
ATOM     17  C20 UNL     1     -19.754   8.395 -11.195  0.00  0.00    +0.144 C 
ATOM     18  O2  UNL     1     -18.505   7.796 -11.569  0.00  0.00    -0.355 OA
ATOM     19  N6  UNL     1     -17.674   9.094  -8.238  0.00  0.00    -0.130 NA
ENDROOT
BRANCH  15  20
ATOM     20  C13 UNL     1     -20.869  14.388 -10.115  0.00  0.00    +0.230 C 
ATOM     21  O1  UNL     1     -20.114  14.992 -11.159  0.00  0.00    -0.213 OA
ENDBRANCH  15  20
BRANCH  13  22
ATOM     22  S1  UNL     1     -25.382  15.038 -12.442  0.00  0.00    -0.066 S 
BRANCH  22  23
ATOM     23  C14 UNL     1     -25.026  14.829 -14.183  0.00  0.00    +0.046 A 
ATOM     24  C15 UNL     1     -25.993  14.766 -15.196  0.00  0.00    +0.098 A 
ATOM     25  C16 UNL     1     -25.564  14.588 -16.519  0.00  0.00    +0.181 A 
ATOM     26  N4  UNL     1     -24.249  14.487 -16.846  0.00  0.00    -0.225 NA
ATOM     27  C17 UNL     1     -23.346  14.555 -15.847  0.00  0.00    +0.101 A 
ATOM     28  C18 UNL     1     -23.678  14.727 -14.518  0.00  0.00    +0.028 A 
ATOM     29  N5  UNL     1     -26.513  14.519 -17.564  0.00  0.00    -0.106 NA
ATOM     30 CL1  UNL     1     -27.686  14.922 -14.837  0.00  0.00    -0.079 Cl
ENDBRANCH  22  23
ENDBRANCH  13  22
TORSDOF 3
ENDMDL
