MODEL 1
REMARK VINA RESULT:    -6.397      0.000      0.000
REMARK INTER + INTRA:         -10.166
REMARK INTER:                  -8.641
REMARK INTRA:                  -1.525
REMARK UNBOUND:                -1.525
REMARK  Name = /tmp/tmptoael4on/7YCE_candidate_0067.pdb
REMARK  6 active torsions:
REMARK  status: ('A' for Active; 'I' for Inactive)
REMARK    1  A    between atoms: N2_7  and  C6_8
REMARK    2  A    between atoms: C8_10  and  N8_32
REMARK    3  A    between atoms: C10_12  and  C11_14
REMARK    4  A    between atoms: C12_17  and  C13_19
REMARK    5  A    between atoms: C19_25  and  C21_29
REMARK    6  A    between atoms: C27_38  and  C28_40
REMARK                            x       y       z     vdW  Elec       q    Type
REMARK                         _______ _______ _______ _____ _____    ______ ____
ROOT
ATOM      1  C6  UNL     1     -21.259  28.310 -18.694  0.00  0.00    +0.133 A 
ATOM      2  C7  UNL     1     -21.918  27.373 -17.890  0.00  0.00    +0.049 A 
ATOM      3  C8  UNL     1     -21.214  26.410 -17.162  0.00  0.00    +0.052 A 
ATOM      4  C9  UNL     1     -19.824  26.455 -17.250  0.00  0.00    +0.037 A 
ATOM      5  C10 UNL     1     -19.215  27.402 -18.061  0.00  0.00    +0.123 A 
ATOM      6  N3  UNL     1     -19.912  28.321 -18.778  0.00  0.00    -0.227 NA
ENDROOT
BRANCH   1  13
ATOM      7  C1  UNL     1     -21.392  31.628 -19.581  0.00  0.00    +0.023 C 
ATOM      8  C2  UNL     1     -22.034  30.581 -18.698  0.00  0.00    +0.090 C 
ATOM      9  C3  UNL     1     -23.463  30.984 -18.315  0.00  0.00    +0.092 C 
ATOM     10  N1  UNL     1     -24.437  30.996 -19.406  0.00  0.00    -0.269 NA
ATOM     11  C4  UNL     1     -24.199  29.884 -20.331  0.00  0.00    +0.094 C 
ATOM     12  C5  UNL     1     -23.280  28.766 -19.837  0.00  0.00    +0.109 C 
ATOM     13  N2  UNL     1     -21.995  29.287 -19.377  0.00  0.00    -0.292 N 
ATOM     14  C30 UNL     1     -25.744  30.785 -18.807  0.00  0.00    +0.090 C 
ENDBRANCH   1  13
BRANCH   3  15
ATOM     15  N8  UNL     1     -21.866  25.491 -16.336  0.00  0.00    -0.304 N 
ATOM     16  C23 UNL     1     -23.174  25.903 -15.834  0.00  0.00    +0.112 C 
ATOM     17  C24 UNL     1     -23.634  25.067 -14.646  0.00  0.00    +0.115 C 
ATOM     18  N9  UNL     1     -22.638  25.012 -13.586  0.00  0.00    -0.273 N 
ATOM     19  C25 UNL     1     -21.239  25.052 -13.970  0.00  0.00    +0.115 C 
ATOM     20  C26 UNL     1     -21.005  24.717 -15.441  0.00  0.00    +0.112 C 
ATOM     21  C27 UNL     1     -22.943  24.971 -12.246  0.00  0.00    +0.249 C 
ATOM     22  O2  UNL     1     -22.092  24.956 -11.364  0.00  0.00    -0.270 OA
BRANCH  21  23
ATOM     23  C28 UNL     1     -24.397  24.954 -11.957  0.00  0.00    +0.058 C 
ATOM     24  C29 UNL     1     -24.918  23.845 -11.426  0.00  0.00    +0.005 C 
ENDBRANCH  21  23
ENDBRANCH   3  15
BRANCH   5  25
ATOM     25  C11 UNL     1     -17.759  27.402 -18.171  0.00  0.00    +0.221 A 
ATOM     26  N4  UNL     1     -17.070  28.054 -19.124  0.00  0.00    -0.054 NA
ATOM     27  O1  UNL     1     -15.742  27.747 -18.851  0.00  0.00    -0.337 OA
ATOM     28  C12 UNL     1     -15.743  26.943 -17.749  0.00  0.00    +0.239 A 
ATOM     29  N5  UNL     1     -16.952  26.697 -17.294  0.00  0.00    -0.189 NA
BRANCH  28  30
ATOM     30  C13 UNL     1     -14.421  26.441 -17.251  0.00  0.00    +0.091 C 
ATOM     31  C14 UNL     1     -14.020  25.206 -18.076  0.00  0.00    +0.013 C 
ATOM     32  C15 UNL     1     -13.439  25.539 -19.443  0.00  0.00    +0.006 C 
ATOM     33  C16 UNL     1     -12.183  26.384 -19.334  0.00  0.00    +0.033 C 
ATOM     34  C17 UNL     1     -12.360  27.458 -18.320  0.00  0.00    +0.006 A 
ATOM     35  C18 UNL     1     -13.349  27.513 -17.353  0.00  0.00    -0.001 A 
ATOM     36  C19 UNL     1     -13.191  28.699 -16.545  0.00  0.00    +0.088 A 
ATOM     37  C20 UNL     1     -12.113  29.472 -16.936  0.00  0.00    +0.127 A 
ATOM     38  S1  UNL     1     -11.293  28.771 -18.267  0.00  0.00    -0.073 S 
ATOM     39  N6  UNL     1     -11.688  30.642 -16.392  0.00  0.00    -0.120 NA
ATOM     40  C22 UNL     1     -14.542  25.934 -15.822  0.00  0.00    +0.014 C 
BRANCH  36  41
ATOM     41  C21 UNL     1     -14.033  29.071 -15.444  0.00  0.00    +0.102 C 
ATOM     42  N7  UNL     1     -14.708  29.409 -14.564  0.00  0.00    -0.191 NA
ENDBRANCH  36  41
ENDBRANCH  28  30
ENDBRANCH   5  25
TORSDOF 6
ENDMDL
