MODEL 1
REMARK VINA RESULT:    -6.087      0.000      0.000
REMARK INTER + INTRA:          -8.884
REMARK INTER:                  -8.222
REMARK INTRA:                  -0.663
REMARK UNBOUND:                -0.663
REMARK  Name = /tmp/tmptxim4knm/7YCE_candidate_0088.pdb
REMARK  6 active torsions:
REMARK  status: ('A' for Active; 'I' for Inactive)
REMARK    1  A    between atoms: C3_3  and  C15_20
REMARK    2  A    between atoms: C9_11  and  O3_13
REMARK    3  A    between atoms: O3_13  and  C11_14
REMARK    4  A    between atoms: C15_20  and  C16_21
REMARK    5  A    between atoms: N4_27  and  S1_28
REMARK    6  A    between atoms: S1_28  and  N5_31
REMARK                            x       y       z     vdW  Elec       q    Type
REMARK                         _______ _______ _______ _____ _____    ______ ____
ROOT
ATOM      1  C1  UNL     1     -20.767  10.834 -12.353  0.00  0.00    +0.031 C 
ATOM      2  C2  UNL     1     -22.006  11.494 -11.830  0.00  0.00    -0.016 A 
ATOM      3  C3  UNL     1     -22.641  11.089 -10.716  0.00  0.00    +0.054 A 
ATOM      4  C4  UNL     1     -23.862  11.766 -10.229  0.00  0.00    +0.342 A 
ATOM      5  O1  UNL     1     -24.473  11.375  -9.239  0.00  0.00    -0.245 OA
ATOM      6  O2  UNL     1     -24.312  12.867 -10.951  0.00  0.00    -0.421 OA
ATOM      7  C5  UNL     1     -23.639  13.306 -12.102  0.00  0.00    +0.151 A 
ATOM      8  C6  UNL     1     -22.504  12.649 -12.566  0.00  0.00    +0.031 A 
ATOM      9  C7  UNL     1     -21.889  13.127 -13.725  0.00  0.00    +0.006 A 
ATOM     10  C8  UNL     1     -22.402  14.237 -14.398  0.00  0.00    +0.038 A 
ATOM     11  C9  UNL     1     -23.525  14.894 -13.899  0.00  0.00    +0.152 A 
ATOM     12  C10 UNL     1     -24.166  14.415 -12.758  0.00  0.00    +0.075 A 
ENDROOT
BRANCH  11  13
ATOM     13  O3  UNL     1     -24.026  15.934 -14.644  0.00  0.00    -0.422 OA
BRANCH  13  14
ATOM     14  C11 UNL     1     -25.014  15.623 -15.566  0.00  0.00    +0.325 A 
ATOM     15  N1  UNL     1     -24.883  14.522 -16.323  0.00  0.00    -0.192 NA
ATOM     16  C12 UNL     1     -25.906  14.255 -17.154  0.00  0.00    +0.105 A 
ATOM     17  C13 UNL     1     -27.047  15.014 -17.251  0.00  0.00    +0.042 A 
ATOM     18  C14 UNL     1     -27.070  16.098 -16.407  0.00  0.00    +0.105 A 
ATOM     19  N2  UNL     1     -26.086  16.428 -15.551  0.00  0.00    -0.192 NA
ENDBRANCH  13  14
ENDBRANCH  11  13
BRANCH   3  20
ATOM     20  C15 UNL     1     -22.229   9.919  -9.878  0.00  0.00    +0.061 C 
BRANCH  20  21
ATOM     21  C16 UNL     1     -20.938  10.092  -9.156  0.00  0.00    +0.014 A 
ATOM     22  C17 UNL     1     -19.930   9.155  -9.367  0.00  0.00    +0.171 A 
ATOM     23  C18 UNL     1     -18.666   9.397  -8.837  0.00  0.00    +0.200 A 
ATOM     24  N3  UNL     1     -18.419  10.405  -7.942  0.00  0.00    -0.224 NA
ATOM     25  C19 UNL     1     -19.431  11.271  -7.744  0.00  0.00    +0.100 A 
ATOM     26  C20 UNL     1     -20.686  11.181  -8.331  0.00  0.00    +0.019 A 
ATOM     27  N4  UNL     1     -17.537   8.584  -9.151  0.00  0.00    -0.063 NA
ATOM     28  F1  UNL     1     -20.248   8.039 -10.039  0.00  0.00    -0.201 F 
BRANCH  27  29
ATOM     29  S1  UNL     1     -17.276   8.440 -10.834  0.00  0.00    +0.148 S 
ATOM     30  O4  UNL     1     -17.675   7.116 -11.253  0.00  0.00    -0.135 OA
ATOM     31  O5  UNL     1     -17.794   9.622 -11.496  0.00  0.00    -0.135 OA
BRANCH  29  32
ATOM     32  N5  UNL     1     -15.585   8.528 -10.889  0.00  0.00    -0.061 NA
ATOM     33  C21 UNL     1     -15.128   9.882 -11.202  0.00  0.00    +0.138 C 
ENDBRANCH  29  32
ENDBRANCH  27  29
ENDBRANCH  20  21
ENDBRANCH   3  20
TORSDOF 6
ENDMDL
