MODEL 1
REMARK VINA RESULT:    -6.971      0.000      0.000
REMARK INTER + INTRA:         -10.597
REMARK INTER:                  -9.416
REMARK INTRA:                  -1.180
REMARK UNBOUND:                -1.180
REMARK  Name = /tmp/tmpuf0k7s2d/7YCE_candidate_0082.pdb
REMARK  6 active torsions:
REMARK  status: ('A' for Active; 'I' for Inactive)
REMARK    1  A    between atoms: C7_10  and  O1_32
REMARK    2  A    between atoms: C10_14  and  C14_19
REMARK    3  A    between atoms: C15_20  and  C20_27
REMARK    4  A    between atoms: O1_32  and  C21_33
REMARK    5  A    between atoms: C21_33  and  C22_34
REMARK    6  A    between atoms: C27_40  and  C28_42
REMARK                            x       y       z     vdW  Elec       q    Type
REMARK                         _______ _______ _______ _____ _____    ______ ____
ROOT
ATOM      1  C1  UNL     1     -21.060  10.629  -8.168  0.00  0.00    +0.023 C 
ATOM      2  C2  UNL     1     -20.404  11.334  -9.331  0.00  0.00    +0.094 C 
ATOM      3  C3  UNL     1     -19.148  10.592  -9.781  0.00  0.00    +0.113 C 
ATOM      4  N1  UNL     1     -19.418   9.400 -10.573  0.00  0.00    -0.273 N 
ATOM      5  C4  UNL     1     -20.715   9.294 -11.210  0.00  0.00    +0.115 C 
ATOM      6  C5  UNL     1     -21.297  10.656 -11.554  0.00  0.00    +0.114 C 
ATOM      7  N2  UNL     1     -21.395  11.550 -10.393  0.00  0.00    -0.291 N 
ATOM      8  C6  UNL     1     -21.318  12.890 -10.857  0.00  0.00    +0.138 A 
ATOM      9  N3  UNL     1     -20.241  13.621 -10.517  0.00  0.00    -0.179 NA
ATOM     10  C7  UNL     1     -20.184  14.874 -10.974  0.00  0.00    +0.321 A 
ATOM     11  N4  UNL     1     -21.122  15.480 -11.711  0.00  0.00    -0.192 NA
ATOM     12  C8  UNL     1     -22.204  14.762 -12.038  0.00  0.00    +0.116 A 
ATOM     13  C9  UNL     1     -23.229  15.329 -12.802  0.00  0.00    +0.160 A 
ATOM     14  C10 UNL     1     -24.398  14.638 -13.169  0.00  0.00    +0.057 A 
ATOM     15  C11 UNL     1     -24.528  13.317 -12.733  0.00  0.00    +0.061 A 
ATOM     16  C12 UNL     1     -23.523  12.730 -11.973  0.00  0.00    +0.016 A 
ATOM     17  C13 UNL     1     -22.356  13.434 -11.630  0.00  0.00    +0.053 A 
ATOM     18 CL1  UNL     1     -25.923  12.360 -13.065  0.00  0.00    -0.082 Cl
ATOM     19  F4  UNL     1     -23.102  16.610 -13.196  0.00  0.00    -0.203 F 
ATOM     20  C27 UNL     1     -18.510   8.386 -10.769  0.00  0.00    +0.249 C 
ATOM     21  O2  UNL     1     -18.747   7.397 -11.453  0.00  0.00    -0.270 OA
ENDROOT
BRANCH  14  22
ATOM     22  C14 UNL     1     -25.404  15.301 -14.003  0.00  0.00    +0.089 A 
ATOM     23  C15 UNL     1     -25.393  15.319 -15.402  0.00  0.00    +0.085 A 
ATOM     24  C16 UNL     1     -26.473  15.956 -16.040  0.00  0.00    -0.014 A 
ATOM     25  C17 UNL     1     -27.472  16.563 -15.285  0.00  0.00    +0.033 A 
ATOM     26  C18 UNL     1     -27.396  16.521 -13.901  0.00  0.00    +0.169 A 
ATOM     27  N5  UNL     1     -26.381  15.893 -13.265  0.00  0.00    -0.227 NA
ATOM     28  N6  UNL     1     -28.419  17.150 -13.161  0.00  0.00    -0.107 NA
ATOM     29  C19 UNL     1     -26.609  16.002 -17.527  0.00  0.00    +0.031 C 
BRANCH  23  30
ATOM     30  C20 UNL     1     -24.307  14.647 -16.197  0.00  0.00    +0.420 C 
ATOM     31  F1  UNL     1     -23.307  14.111 -15.443  0.00  0.00    -0.166 F 
ATOM     32  F2  UNL     1     -24.784  13.629 -16.963  0.00  0.00    -0.166 F 
ATOM     33  F3  UNL     1     -23.676  15.494 -17.060  0.00  0.00    -0.166 F 
ENDBRANCH  23  30
ENDBRANCH  14  22
BRANCH  20  34
ATOM     34  C28 UNL     1     -17.213   8.593 -10.083  0.00  0.00    +0.058 C 
ATOM     35  C29 UNL     1     -16.127   8.772 -10.838  0.00  0.00    +0.005 C 
ENDBRANCH  20  34
BRANCH  10  36
ATOM     36  O1  UNL     1     -19.064  15.576 -10.587  0.00  0.00    -0.445 OA
BRANCH  36  37
ATOM     37  C21 UNL     1     -18.342  14.778  -9.658  0.00  0.00    +0.224 C 
BRANCH  37  38
ATOM     38  C22 UNL     1     -16.912  14.598 -10.140  0.00  0.00    +0.102 C 
ATOM     39  C23 UNL     1     -16.669  13.133 -10.431  0.00  0.00    +0.021 C 
ATOM     40  C24 UNL     1     -15.190  12.928 -10.180  0.00  0.00    +0.019 C 
ATOM     41  C25 UNL     1     -14.712  14.201  -9.513  0.00  0.00    +0.072 C 
ATOM     42  N7  UNL     1     -15.923  14.907  -9.106  0.00  0.00    -0.270 NA
ATOM     43  C26 UNL     1     -15.629  16.329  -9.171  0.00  0.00    +0.090 C 
ENDBRANCH  37  38
ENDBRANCH  36  37
ENDBRANCH  10  36
TORSDOF 6
ENDMDL
