MODEL 1
REMARK VINA RESULT:    -5.534      0.000      0.000
REMARK INTER + INTRA:         -10.525
REMARK INTER:                  -7.798
REMARK INTRA:                  -2.727
REMARK UNBOUND:                -2.727
REMARK  Name = /tmp/tmply_2we2b/7YCE_candidate_0021.pdb
REMARK  7 active torsions:
REMARK  status: ('A' for Active; 'I' for Inactive)
REMARK    1  A    between atoms: C2_2  and  C3_3
REMARK    2  A    between atoms: C3_3  and  S1_4
REMARK    3  A    between atoms: S1_4  and  N1_7
REMARK    4  A    between atoms: N1_7  and  C4_8
REMARK    5  A    between atoms: C6_10  and  C10_15
REMARK    6  A    between atoms: C10_15  and  C11_17
REMARK    7  A    between atoms: C16_23  and  C18_26
REMARK                            x       y       z     vdW  Elec       q    Type
REMARK                         _______ _______ _______ _____ _____    ______ ____
ROOT
ATOM      1  C10 UNL     1     -20.340  25.749 -16.093  0.00  0.00    +0.202 C 
ATOM      2  O3  UNL     1     -20.930  24.682 -16.225  0.00  0.00    -0.286 OA
ENDROOT
BRANCH   1   3
ATOM      3  C11 UNL     1     -20.121  26.681 -17.188  0.00  0.00    +0.061 A 
ATOM      4  C12 UNL     1     -21.086  27.445 -17.823  0.00  0.00    +0.104 A 
ATOM      5  N2  UNL     1     -20.482  28.194 -18.792  0.00  0.00    -0.225 NA
ATOM      6  C13 UNL     1     -19.139  27.950 -18.805  0.00  0.00    +0.162 A 
ATOM      7  C14 UNL     1     -18.877  27.010 -17.813  0.00  0.00    +0.040 A 
ATOM      8  C15 UNL     1     -17.537  26.615 -17.654  0.00  0.00    +0.005 A 
ATOM      9  C16 UNL     1     -16.549  27.165 -18.475  0.00  0.00    +0.019 A 
ATOM     10  C17 UNL     1     -16.983  28.095 -19.418  0.00  0.00    +0.101 A 
ATOM     11  N3  UNL     1     -18.248  28.526 -19.633  0.00  0.00    -0.225 NA
BRANCH   9  12
ATOM     12  C18 UNL     1     -15.137  26.787 -18.349  0.00  0.00    +0.002 A 
ATOM     13  C19 UNL     1     -14.187  27.684 -17.839  0.00  0.00    +0.001 A 
ATOM     14  C20 UNL     1     -12.844  27.333 -17.715  0.00  0.00    +0.011 A 
ATOM     15  C21 UNL     1     -12.433  26.065 -18.105  0.00  0.00    +0.058 A 
ATOM     16  C22 UNL     1     -13.346  25.152 -18.616  0.00  0.00    +0.011 A 
ATOM     17  C23 UNL     1     -14.686  25.517 -18.733  0.00  0.00    +0.001 A 
ATOM     18 CL1  UNL     1     -10.783  25.623 -17.957  0.00  0.00    -0.082 Cl
ENDBRANCH   9  12
ENDBRANCH   1   3
BRANCH   1  21
ATOM     19  C4  UNL     1     -18.270  25.693 -12.967  0.00  0.00    +0.118 A 
ATOM     20  C5  UNL     1     -18.739  25.403 -14.249  0.00  0.00    +0.162 A 
ATOM     21  C6  UNL     1     -19.831  26.093 -14.764  0.00  0.00    +0.095 A 
ATOM     22  C7  UNL     1     -20.452  27.079 -14.008  0.00  0.00    +0.145 A 
ATOM     23  C8  UNL     1     -19.975  27.397 -12.741  0.00  0.00    +0.031 A 
ATOM     24  C9  UNL     1     -18.874  26.714 -12.229  0.00  0.00    +0.023 A 
ATOM     25  F1  UNL     1     -21.511  27.744 -14.489  0.00  0.00    -0.204 F 
ATOM     26  F2  UNL     1     -18.116  24.477 -14.992  0.00  0.00    -0.203 F 
BRANCH  19  27
ATOM     27  N1  UNL     1     -17.086  25.035 -12.498  0.00  0.00    -0.098 NA
BRANCH  27  28
ATOM     28  S1  UNL     1     -15.584  25.754 -12.870  0.00  0.00    +0.073 S 
ATOM     29  O1  UNL     1     -15.790  26.857 -13.787  0.00  0.00    -0.153 OA
ATOM     30  O2  UNL     1     -14.840  25.930 -11.640  0.00  0.00    -0.153 OA
BRANCH  28  31
ATOM     31  C3  UNL     1     -14.815  24.429 -13.777  0.00  0.00    +0.174 C 
BRANCH  31  33
ATOM     32  C1  UNL     1     -12.563  25.097 -14.523  0.00  0.00    +0.002 C 
ATOM     33  C2  UNL     1     -14.006  24.958 -14.937  0.00  0.00    +0.027 C 
ENDBRANCH  31  33
ENDBRANCH  28  31
ENDBRANCH  27  28
ENDBRANCH  19  27
ENDBRANCH   1  21
TORSDOF 7
ENDMDL
