MODEL 1
REMARK VINA RESULT:    -7.171      0.000      0.000
REMARK INTER + INTRA:          -8.232
REMARK INTER:                  -8.009
REMARK INTRA:                  -0.223
REMARK UNBOUND:                -0.223
REMARK  Name = /tmp/tmpoiedep_9/7YCE_candidate_0091.pdb
REMARK  2 active torsions:
REMARK  status: ('A' for Active; 'I' for Inactive)
REMARK    1  A    between atoms: C16_19  and  S1_22
REMARK    2  A    between atoms: S1_22  and  C17_23
REMARK                            x       y       z     vdW  Elec       q    Type
REMARK                         _______ _______ _______ _____ _____    ______ ____
ROOT
ATOM      1  C1  UNL     1     -21.021  13.938 -12.566  0.00  0.00    +0.024 C 
ATOM      2  C2  UNL     1     -20.991  13.286 -11.198  0.00  0.00    +0.094 C 
ATOM      3  N1  UNL     1     -21.556  11.954 -11.260  0.00  0.00    -0.277 N 
ATOM      4  C3  UNL     1     -22.584  11.675 -12.242  0.00  0.00    +0.094 C 
ATOM      5  C4  UNL     1     -23.347  12.939 -12.575  0.00  0.00    +0.024 C 
ATOM      6  C5  UNL     1     -22.431  14.031 -13.130  0.00  0.00    +0.028 C 
ATOM      7  C6  UNL     1     -22.366  13.871 -14.661  0.00  0.00    +0.028 C 
ATOM      8  C7  UNL     1     -23.445  14.802 -15.120  0.00  0.00    -0.025 A 
ATOM      9  C8  UNL     1     -24.036  14.842 -16.370  0.00  0.00    -0.005 A 
ATOM     10  C9  UNL     1     -25.021  15.804 -16.593  0.00  0.00    -0.000 A 
ATOM     11  C10 UNL     1     -25.390  16.702 -15.582  0.00  0.00    -0.000 A 
ATOM     12  C11 UNL     1     -24.782  16.653 -14.328  0.00  0.00    -0.003 A 
ATOM     13  C12 UNL     1     -23.819  15.685 -14.106  0.00  0.00    -0.009 A 
ATOM     14  C13 UNL     1     -22.987  15.450 -12.892  0.00  0.00    +0.114 C 
ATOM     15  N2  UNL     1     -23.651  15.638 -11.618  0.00  0.00    -0.128 NA
ATOM     16  C14 UNL     1     -20.601  10.946 -11.179  0.00  0.00    +0.239 A 
ATOM     17  N3  UNL     1     -19.408  11.229 -10.629  0.00  0.00    -0.209 NA
ATOM     18  C15 UNL     1     -18.533  10.203 -10.548  0.00  0.00    +0.129 A 
ATOM     19  C16 UNL     1     -18.787   8.923 -10.985  0.00  0.00    +0.152 A 
ATOM     20  N4  UNL     1     -19.975   8.678 -11.551  0.00  0.00    -0.137 NA
ATOM     21  N5  UNL     1     -20.891   9.702 -11.636  0.00  0.00    -0.112 NA
ENDROOT
BRANCH  19  22
ATOM     22  S1  UNL     1     -17.609   7.608 -10.885  0.00  0.00    -0.064 S 
BRANCH  22  23
ATOM     23  C17 UNL     1     -16.456   8.223  -9.663  0.00  0.00    +0.046 A 
ATOM     24  C18 UNL     1     -15.381   9.083  -9.929  0.00  0.00    +0.098 A 
ATOM     25  C19 UNL     1     -14.574   9.496  -8.860  0.00  0.00    +0.181 A 
ATOM     26  N6  UNL     1     -14.807   9.092  -7.583  0.00  0.00    -0.225 NA
ATOM     27  C20 UNL     1     -15.858   8.279  -7.357  0.00  0.00    +0.101 A 
ATOM     28  C21 UNL     1     -16.701   7.825  -8.350  0.00  0.00    +0.028 A 
ATOM     29  N7  UNL     1     -13.479  10.357  -9.093  0.00  0.00    -0.106 NA
ATOM     30 CL1  UNL     1     -15.049   9.634 -11.539  0.00  0.00    -0.079 Cl
ENDBRANCH  22  23
ENDBRANCH  19  22
TORSDOF 2
ENDMDL
