MODEL 1
REMARK VINA RESULT:    -5.375      0.000      0.000
REMARK INTER + INTRA:          -9.719
REMARK INTER:                  -8.203
REMARK INTRA:                  -1.516
REMARK UNBOUND:                -1.516
REMARK  Name = /tmp/tmp_b972kdv/7YCE_candidate_0056.pdb
REMARK  9 active torsions:
REMARK  status: ('A' for Active; 'I' for Inactive)
REMARK    1  A    between atoms: C5_5  and  C15_22
REMARK    2  A    between atoms: C7_8  and  C8_10
REMARK    3  A    between atoms: C8_10  and  C9_11
REMARK    4  A    between atoms: C8_10  and  N2_15
REMARK    5  A    between atoms: C13_16  and  C14_18
REMARK    6  A    between atoms: N3_24  and  C16_25
REMARK    7  A    between atoms: C16_25  and  C17_26
REMARK    8  A    between atoms: C16_25  and  C22_33
REMARK    9  A    between atoms: C17_26  and  C18_27
REMARK                            x       y       z     vdW  Elec       q    Type
REMARK                         _______ _______ _______ _____ _____    ______ ____
ROOT
ATOM      1  C1  UNL     1     -14.594  26.159 -13.263  0.00  0.00    +0.000 C 
ATOM      2  C2  UNL     1     -15.406  27.201 -13.955  0.00  0.00    +0.004 C 
ATOM      3  C3  UNL     1     -14.736  28.137 -14.938  0.00  0.00    +0.022 C 
ATOM      4  C4  UNL     1     -15.662  27.082 -15.440  0.00  0.00    +0.029 C 
ATOM      5  C5  UNL     1     -14.882  26.134 -16.315  0.00  0.00    +0.154 C 
ATOM      6  N1  UNL     1     -13.520  26.652 -16.264  0.00  0.00    -0.272 N 
ATOM      7  C6  UNL     1     -13.364  27.856 -15.466  0.00  0.00    +0.094 C 
ATOM      8  C7  UNL     1     -12.474  25.883 -16.702  0.00  0.00    +0.246 C 
ATOM      9  O1  UNL     1     -12.637  24.744 -17.137  0.00  0.00    -0.273 OA
ATOM     10  C23 UNL     1     -16.501  27.769 -13.122  0.00  0.00    +0.000 C 
ENDROOT
BRANCH   5  11
ATOM     11  C15 UNL     1     -15.411  26.203 -17.752  0.00  0.00    +0.260 C 
ATOM     12  O3  UNL     1     -14.908  25.626 -18.713  0.00  0.00    -0.272 OA
ATOM     13  N3  UNL     1     -16.494  27.052 -17.853  0.00  0.00    -0.190 NA
BRANCH  13  14
ATOM     14  C16 UNL     1     -17.103  27.284 -19.144  0.00  0.00    +0.186 C 
BRANCH  14  15
ATOM     15  C22 UNL     1     -17.256  28.724 -19.416  0.00  0.00    +0.094 C 
ATOM     16  N5  UNL     1     -17.397  29.866 -19.576  0.00  0.00    -0.194 NA
ENDBRANCH  14  15
BRANCH  14  17
ATOM     17  C17 UNL     1     -18.476  26.630 -19.145  0.00  0.00    +0.046 C 
BRANCH  17  18
ATOM     18  C18 UNL     1     -19.244  26.914 -17.872  0.00  0.00    +0.083 C 
ATOM     19  C19 UNL     1     -19.610  25.618 -17.171  0.00  0.00    +0.033 C 
ATOM     20  C20 UNL     1     -20.975  25.889 -16.573  0.00  0.00    +0.116 C 
ATOM     21  N4  UNL     1     -21.539  26.906 -17.414  0.00  0.00    -0.205 NA
ATOM     22  C21 UNL     1     -20.580  27.520 -18.198  0.00  0.00    +0.241 C 
ATOM     23  O4  UNL     1     -20.744  28.436 -18.987  0.00  0.00    -0.273 OA
ENDBRANCH  17  18
ENDBRANCH  14  17
ENDBRANCH  13  14
ENDBRANCH   5  11
BRANCH   8  24
ATOM     24  C8  UNL     1     -11.104  26.564 -16.626  0.00  0.00    +0.171 C 
BRANCH  24  25
ATOM     25  C9  UNL     1     -10.554  26.952 -17.996  0.00  0.00    +0.027 C 
ATOM     26  C10 UNL     1      -9.836  28.283 -17.927  0.00  0.00    +0.002 C 
ATOM     27  C11 UNL     1     -11.641  27.050 -19.044  0.00  0.00    +0.002 C 
ATOM     28  C12 UNL     1      -9.541  25.922 -18.453  0.00  0.00    +0.002 C 
ENDBRANCH  24  25
BRANCH  24  29
ATOM     29  N2  UNL     1     -10.195  25.730 -15.872  0.00  0.00    -0.191 NA
ATOM     30  C13 UNL     1      -9.710  26.181 -14.657  0.00  0.00    +0.337 C 
ATOM     31  O2  UNL     1      -9.997  27.297 -14.217  0.00  0.00    -0.264 OA
BRANCH  30  32
ATOM     32  C14 UNL     1      -8.754  25.192 -13.985  0.00  0.00    +0.471 C 
ATOM     33  F1  UNL     1      -9.322  23.961 -13.837  0.00  0.00    -0.162 F 
ATOM     34  F2  UNL     1      -7.608  25.002 -14.695  0.00  0.00    -0.162 F 
ATOM     35  F3  UNL     1      -8.368  25.582 -12.739  0.00  0.00    -0.162 F 
ENDBRANCH  30  32
ENDBRANCH  24  29
ENDBRANCH   8  24
TORSDOF 9
ENDMDL
