MODEL 1
REMARK VINA RESULT:    -6.374      0.000      0.000
REMARK INTER + INTRA:          -7.954
REMARK INTER:                  -7.492
REMARK INTRA:                  -0.462
REMARK UNBOUND:                -0.462
REMARK  Name = /tmp/tmpydjq7mt0/7YCE_candidate_0047.pdb
REMARK  3 active torsions:
REMARK  status: ('A' for Active; 'I' for Inactive)
REMARK    1  A    between atoms: C3_3  and  C23_31
REMARK    2  A    between atoms: N1_6  and  C18_26
REMARK    3  A    between atoms: C11_17  and  N6_20
REMARK                            x       y       z     vdW  Elec       q    Type
REMARK                         _______ _______ _______ _____ _____    ______ ____
ROOT
ATOM      1  C1  UNL     1     -17.382   9.595  -9.712  0.00  0.00    +0.031 C 
ATOM      2  C2  UNL     1     -17.949  10.897 -10.175  0.00  0.00    -0.010 A 
ATOM      3  C3  UNL     1     -17.248  12.047 -10.260  0.00  0.00    +0.087 A 
ATOM      4  C4  UNL     1     -17.921  13.306 -10.721  0.00  0.00    +0.264 A 
ATOM      5  O1  UNL     1     -17.275  14.349 -10.809  0.00  0.00    -0.267 OA
ATOM      6  N1  UNL     1     -19.266  13.229 -11.038  0.00  0.00    -0.282 N 
ATOM      7  C5  UNL     1     -20.003  12.031 -10.959  0.00  0.00    +0.150 A 
ATOM      8  N2  UNL     1     -21.307  12.059 -11.295  0.00  0.00    -0.195 NA
ATOM      9  C6  UNL     1     -22.020  10.922 -11.238  0.00  0.00    +0.244 A 
ATOM     10  N3  UNL     1     -21.471   9.763 -10.831  0.00  0.00    -0.210 NA
ATOM     11  C7  UNL     1     -20.168   9.780 -10.499  0.00  0.00    +0.105 A 
ATOM     12  C8  UNL     1     -19.362  10.891 -10.541  0.00  0.00    +0.050 A 
ATOM     13  N4  UNL     1     -23.385  10.889 -11.572  0.00  0.00    -0.159 NA
ATOM     14  C9  UNL     1     -24.152  11.929 -12.150  0.00  0.00    +0.155 A 
ATOM     15  N5  UNL     1     -23.619  13.091 -12.590  0.00  0.00    -0.226 NA
ATOM     16  C10 UNL     1     -24.460  14.000 -13.140  0.00  0.00    +0.115 A 
ATOM     17  C11 UNL     1     -25.839  13.860 -13.283  0.00  0.00    +0.067 A 
ATOM     18  C12 UNL     1     -26.346  12.643 -12.837  0.00  0.00    +0.019 A 
ATOM     19  C13 UNL     1     -25.518  11.679 -12.268  0.00  0.00    +0.037 A 
ENDROOT
BRANCH  17  20
ATOM     20  N6  UNL     1     -26.644  14.818 -13.890  0.00  0.00    -0.303 N 
ATOM     21  C14 UNL     1     -25.973  16.030 -14.355  0.00  0.00    +0.110 C 
ATOM     22  C15 UNL     1     -26.107  16.203 -15.866  0.00  0.00    +0.110 C 
ATOM     23  N7  UNL     1     -27.477  16.201 -16.377  0.00  0.00    -0.214 NA
ATOM     24  C16 UNL     1     -28.381  15.444 -15.512  0.00  0.00    +0.110 C 
ATOM     25  C17 UNL     1     -27.715  14.309 -14.743  0.00  0.00    +0.110 C 
ENDBRANCH  17  20
BRANCH   6  26
ATOM     26  C18 UNL     1     -20.009  14.385 -11.505  0.00  0.00    +0.090 C 
ATOM     27  C19 UNL     1     -19.990  15.540 -10.525  0.00  0.00    +0.023 C 
ATOM     28  C20 UNL     1     -20.182  16.786 -11.368  0.00  0.00    +0.002 C 
ATOM     29  C21 UNL     1     -19.983  16.380 -12.818  0.00  0.00    +0.002 C 
ATOM     30  C22 UNL     1     -19.470  14.954 -12.798  0.00  0.00    +0.023 C 
ENDBRANCH   6  26
BRANCH   3  31
ATOM     31  C23 UNL     1     -15.801  12.061  -9.874  0.00  0.00    +0.178 C 
ATOM     32  O2  UNL     1     -15.434  12.337  -8.732  0.00  0.00    -0.291 OA
ATOM     33  C24 UNL     1     -14.792  11.765 -10.943  0.00  0.00    +0.077 C 
ENDBRANCH   3  31
TORSDOF 3
ENDMDL
