MODEL 1
REMARK VINA RESULT:    -4.246      0.000      0.000
REMARK INTER + INTRA:          -5.090
REMARK INTER:                  -4.742
REMARK INTRA:                  -0.348
REMARK UNBOUND:                -0.348
REMARK  Name = /tmp/tmpnr509piy/7YCE_candidate_0076.pdb
REMARK  2 active torsions:
REMARK  status: ('A' for Active; 'I' for Inactive)
REMARK    1  A    between atoms: N2_5  and  C5_7
REMARK    2  A    between atoms: C5_7  and  C6_8
REMARK                            x       y       z     vdW  Elec       q    Type
REMARK                         _______ _______ _______ _____ _____    ______ ____
ROOT
ATOM      1  C6  UNL     1     -18.831  10.639 -10.738  0.00  0.00    +0.099 A 
ATOM      2  C7  UNL     1     -18.815   9.306 -10.858  0.00  0.00    +0.131 A 
ATOM      3  C8  UNL     1     -17.510   8.607 -11.034  0.00  0.00    +0.295 A 
ATOM      4  O1  UNL     1     -17.439   7.386 -11.146  0.00  0.00    -0.264 OA
ATOM      5  N3  UNL     1     -16.404   9.431 -11.067  0.00  0.00    -0.151 NA
ATOM      6  C9  UNL     1     -16.413  10.811 -10.970  0.00  0.00    +0.371 A 
ATOM      7  O2  UNL     1     -15.389  11.487 -11.038  0.00  0.00    -0.243 OA
ATOM      8  N4  UNL     1     -17.669  11.367 -10.807  0.00  0.00    -0.192 NA
ATOM      9 CL1  UNL     1     -20.245   8.348 -10.808  0.00  0.00    -0.076 Cl
ENDROOT
BRANCH   1  10
ATOM     10  C5  UNL     1     -20.081  11.435 -10.555  0.00  0.00    +0.139 C 
BRANCH  10  15
ATOM     11  C1  UNL     1     -20.963  14.118 -12.931  0.00  0.00    +0.029 C 
ATOM     12  C2  UNL     1     -21.843  12.969 -13.419  0.00  0.00    +0.065 C 
ATOM     13  C3  UNL     1     -21.328  11.807 -12.618  0.00  0.00    +0.131 C 
ATOM     14  N1  UNL     1     -21.837  10.635 -12.761  0.00  0.00    -0.137 NA
ATOM     15  N2  UNL     1     -20.345  12.200 -11.750  0.00  0.00    -0.290 N 
ATOM     16  C4  UNL     1     -20.286  13.643 -11.649  0.00  0.00    +0.093 C 
ENDBRANCH  10  15
ENDBRANCH   1  10
TORSDOF 2
ENDMDL
