MODEL 1
REMARK VINA RESULT:    -5.476      0.000      0.000
REMARK INTER + INTRA:         -14.717
REMARK INTER:                  -9.638
REMARK INTRA:                  -5.079
REMARK UNBOUND:                -5.079
REMARK  Name = /tmp/tmpb_c3zqay/7YCE_candidate_0042.pdb
REMARK  13 active torsions:
REMARK  status: ('A' for Active; 'I' for Inactive)
REMARK    1  A    between atoms: C10_11  and  O11_52
REMARK    2  A    between atoms: C12_13  and  O8_41
REMARK    3  A    between atoms: C18_19  and  O2_20
REMARK    4  A    between atoms: O2_20  and  C19_21
REMARK    5  A    between atoms: C19_21  and  C20_23
REMARK    6  A    between atoms: C20_23  and  C21_24
REMARK    7  A    between atoms: C21_24  and  C22_25
REMARK    8  A    between atoms: C21_24  and  N1_31
REMARK    9  A    between atoms: C28_32  and  O5_34
REMARK   10  A    between atoms: O5_34  and  C29_35
REMARK   11  A    between atoms: O8_41  and  C33_42
REMARK   12  A    between atoms: C33_42  and  C34_44
REMARK   13  A    between atoms: O11_52  and  C41_53
REMARK                            x       y       z     vdW  Elec       q    Type
REMARK                         _______ _______ _______ _____ _____    ______ ____
ROOT
ATOM      1  C1  UNL     1     -16.639   8.418 -47.222  0.00  0.00    +0.029 C 
ATOM      2  C2  UNL     1     -17.758   9.054 -46.470  0.00  0.00    -0.010 C 
ATOM      3  C3  UNL     1     -19.046   8.602 -46.486  0.00  0.00    -0.010 C 
ATOM      4  C4  UNL     1     -19.528   7.211 -46.887  0.00  0.00    +0.227 C 
ATOM      5  C5  UNL     1     -20.709   6.601 -46.063  0.00  0.00    +0.186 C 
ATOM      6  O1  UNL     1     -21.818   6.516 -46.618  0.00  0.00    -0.293 OA
ATOM      7  C6  UNL     1     -20.595   6.206 -44.559  0.00  0.00    +0.089 C 
ATOM      8  C7  UNL     1     -21.574   5.009 -44.444  0.00  0.00    +0.161 C 
ATOM      9  C8  UNL     1     -21.760   4.554 -43.016  0.00  0.00    +0.067 C 
ATOM     10  C9  UNL     1     -22.471   5.637 -42.260  0.00  0.00    +0.157 C 
ATOM     11  C10 UNL     1     -22.308   7.086 -42.771  0.00  0.00    +0.191 C 
ATOM     12  C11 UNL     1     -21.040   7.346 -43.570  0.00  0.00    +0.093 C 
ATOM     13  C12 UNL     1     -20.308   8.670 -43.172  0.00  0.00    +0.201 C 
ATOM     14  C13 UNL     1     -19.290   9.103 -44.200  0.00  0.00    +0.170 C 
ATOM     15  C14 UNL     1     -19.967   9.371 -45.586  0.00  0.00    +0.047 C 
ATOM     16  C15 UNL     1     -21.458   9.125 -45.733  0.00  0.00    +0.007 C 
ATOM     17  C16 UNL     1     -19.988  10.861 -45.964  0.00  0.00    +0.007 C 
ATOM     18  C17 UNL     1     -18.230  10.195 -44.110  0.00  0.00    +0.082 C 
ATOM     19  C18 UNL     1     -17.296  10.049 -45.375  0.00  0.00    +0.189 C 
ATOM     20  O7  UNL     1     -18.407   7.961 -44.107  0.00  0.00    -0.222 OA
ATOM     21  C40 UNL     1     -22.137   7.365 -41.258  0.00  0.00    +0.185 C 
ATOM     22  O10 UNL     1     -21.757   5.976 -41.040  0.00  0.00    -0.349 OA
ATOM     23  O13 UNL     1     -21.113   3.884 -45.181  0.00  0.00    -0.223 OA
ATOM     24  C43 UNL     1     -19.232   5.625 -44.223  0.00  0.00    +0.010 C 
ATOM     25  O14 UNL     1     -18.481   6.275 -47.000  0.00  0.00    -0.211 OA
ENDROOT
BRANCH  19  26
ATOM     26  O2  UNL     1     -17.066  11.322 -45.964  0.00  0.00    -0.446 OA
BRANCH  26  27
ATOM     27  C19 UNL     1     -16.264  12.098 -45.183  0.00  0.00    +0.350 C 
ATOM     28  O3  UNL     1     -15.120  11.810 -44.856  0.00  0.00    -0.247 OA
BRANCH  27  29
ATOM     29  C20 UNL     1     -16.959  13.377 -44.781  0.00  0.00    +0.274 C 
ATOM     30  O6  UNL     1     -16.580  14.378 -45.721  0.00  0.00    -0.209 OA
BRANCH  29  31
ATOM     31  C21 UNL     1     -16.494  13.757 -43.381  0.00  0.00    +0.162 C 
BRANCH  31  32
ATOM     32  C22 UNL     1     -17.581  14.144 -42.424  0.00  0.00    +0.001 A 
ATOM     33  C23 UNL     1     -17.902  13.362 -41.314  0.00  0.00    -0.003 A 
ATOM     34  C24 UNL     1     -18.919  13.750 -40.447  0.00  0.00    -0.000 A 
ATOM     35  C25 UNL     1     -19.621  14.931 -40.683  0.00  0.00    -0.000 A 
ATOM     36  C26 UNL     1     -19.299  15.724 -41.781  0.00  0.00    -0.000 A 
ATOM     37  C27 UNL     1     -18.285  15.328 -42.651  0.00  0.00    -0.003 A 
ENDBRANCH  31  32
BRANCH  31  38
ATOM     38  N1  UNL     1     -15.376  14.667 -43.329  0.00  0.00    -0.163 NA
ATOM     39  C28 UNL     1     -14.231  14.392 -42.629  0.00  0.00    +0.421 C 
ATOM     40  O4  UNL     1     -14.048  13.376 -41.971  0.00  0.00    -0.225 OA
BRANCH  39  41
ATOM     41  O5  UNL     1     -13.341  15.407 -42.773  0.00  0.00    -0.441 OA
BRANCH  41  42
ATOM     42  C29 UNL     1     -13.286  16.409 -41.747  0.00  0.00    +0.138 C 
ATOM     43  C30 UNL     1     -12.132  16.037 -40.845  0.00  0.00    +0.044 C 
ATOM     44  C31 UNL     1     -13.010  17.777 -42.327  0.00  0.00    +0.044 C 
ATOM     45  C32 UNL     1     -14.549  16.412 -40.917  0.00  0.00    +0.044 C 
ENDBRANCH  41  42
ENDBRANCH  39  41
ENDBRANCH  31  38
ENDBRANCH  29  31
ENDBRANCH  27  29
ENDBRANCH  26  27
ENDBRANCH  19  26
BRANCH  13  46
ATOM     46  O8  UNL     1     -21.252   9.710 -42.908  0.00  0.00    -0.446 OA
BRANCH  46  47
ATOM     47  C33 UNL     1     -20.797  10.607 -41.997  0.00  0.00    +0.341 C 
ATOM     48  O9  UNL     1     -19.919  10.398 -41.180  0.00  0.00    -0.245 OA
BRANCH  47  49
ATOM     49  C34 UNL     1     -21.531  11.878 -42.127  0.00  0.00    +0.076 A 
ATOM     50  C35 UNL     1     -22.416  12.312 -41.140  0.00  0.00    +0.006 A 
ATOM     51  C36 UNL     1     -23.075  13.529 -41.287  0.00  0.00    +0.000 A 
ATOM     52  C37 UNL     1     -22.847  14.315 -42.415  0.00  0.00    +0.000 A 
ATOM     53  C38 UNL     1     -21.972  13.875 -43.407  0.00  0.00    +0.000 A 
ATOM     54  C39 UNL     1     -21.310  12.658 -43.263  0.00  0.00    +0.006 A 
ENDBRANCH  47  49
ENDBRANCH  46  47
ENDBRANCH  13  46
BRANCH  11  55
ATOM     55  O11 UNL     1     -23.418   7.677 -43.490  0.00  0.00    -0.451 OA
BRANCH  55  56
ATOM     56  C41 UNL     1     -24.480   8.111 -42.759  0.00  0.00    +0.317 C 
ATOM     57  O12 UNL     1     -25.283   7.407 -42.169  0.00  0.00    -0.250 OA
ATOM     58  C42 UNL     1     -24.519   9.606 -42.772  0.00  0.00    +0.121 C 
ENDBRANCH  55  56
ENDBRANCH  11  55
TORSDOF 13
ENDMDL
