MODEL 1
REMARK VINA RESULT:    -6.900      0.000      0.000
REMARK INTER + INTRA:         -10.139
REMARK INTER:                  -8.513
REMARK INTRA:                  -1.625
REMARK UNBOUND:                -1.625
REMARK  Name = /tmp/tmpv1bwzy35/7YCE_candidate_0005.pdb
REMARK  4 active torsions:
REMARK  status: ('A' for Active; 'I' for Inactive)
REMARK    1  A    between atoms: C3_3  and  N2_11
REMARK    2  A    between atoms: C4_4  and  C7_8
REMARK    3  A    between atoms: C11_14  and  C27_37
REMARK    4  A    between atoms: C23_31  and  C24_33
REMARK                            x       y       z     vdW  Elec       q    Type
REMARK                         _______ _______ _______ _____ _____    ______ ____
ROOT
ATOM      1  N2  UNL     1     -15.223  26.863 -16.917  0.00  0.00    -0.257 N 
ATOM      2  C10 UNL     1     -15.365  26.316 -15.621  0.00  0.00    +0.151 A 
ATOM      3  N3  UNL     1     -14.245  26.028 -14.903  0.00  0.00    -0.227 NA
ATOM      4  C11 UNL     1     -14.359  25.499 -13.658  0.00  0.00    +0.099 A 
ATOM      5  C12 UNL     1     -15.595  25.241 -13.093  0.00  0.00    +0.076 A 
ATOM      6  C13 UNL     1     -16.721  25.551 -13.841  0.00  0.00    +0.017 A 
ATOM      7  C14 UNL     1     -16.645  26.111 -15.117  0.00  0.00    +0.050 A 
ATOM      8  C15 UNL     1     -17.855  26.449 -15.904  0.00  0.00    +0.070 A 
ATOM      9  C16 UNL     1     -17.693  26.924 -17.165  0.00  0.00    +0.125 A 
ATOM     10  C17 UNL     1     -16.302  27.206 -17.713  0.00  0.00    +0.281 A 
ATOM     11  O1  UNL     1     -16.168  27.713 -18.830  0.00  0.00    -0.265 OA
ATOM     12  N4  UNL     1     -18.805  27.148 -17.982  0.00  0.00    -0.251 N 
ATOM     13  C18 UNL     1     -20.117  26.965 -17.567  0.00  0.00    +0.249 C 
ATOM     14  O2  UNL     1     -21.078  27.053 -18.336  0.00  0.00    -0.273 OA
ATOM     15  C19 UNL     1     -20.321  26.749 -16.081  0.00  0.00    +0.170 C 
ATOM     16  N5  UNL     1     -19.136  26.221 -15.369  0.00  0.00    -0.297 N 
ATOM     17  C20 UNL     1     -19.425  26.087 -13.935  0.00  0.00    +0.113 C 
ATOM     18  C21 UNL     1     -20.627  25.181 -13.680  0.00  0.00    +0.115 C 
ATOM     19  N6  UNL     1     -21.783  25.546 -14.476  0.00  0.00    -0.272 N 
ATOM     20  C22 UNL     1     -21.544  25.858 -15.880  0.00  0.00    +0.123 C 
ATOM     21  C23 UNL     1     -23.022  25.198 -13.986  0.00  0.00    +0.249 C 
ATOM     22  O3  UNL     1     -23.195  24.762 -12.853  0.00  0.00    -0.270 OA
ATOM     23  C26 UNL     1     -18.645  27.475 -19.379  0.00  0.00    +0.120 C 
ATOM     24 CL1  UNL     1     -15.811  24.575 -11.524  0.00  0.00    -0.081 Cl
ENDROOT
BRANCH   4  25
ATOM     25  C27 UNL     1     -13.085  25.227 -12.998  0.00  0.00    +0.085 A 
ATOM     26  C28 UNL     1     -12.300  26.246 -12.447  0.00  0.00    +0.199 A 
ATOM     27  C29 UNL     1     -11.093  25.977 -11.805  0.00  0.00    +0.042 A 
ATOM     28  C30 UNL     1     -10.648  24.663 -11.702  0.00  0.00    +0.006 A 
ATOM     29  C31 UNL     1     -11.404  23.629 -12.246  0.00  0.00    +0.030 A 
ATOM     30  C32 UNL     1     -12.609  23.917 -12.884  0.00  0.00    +0.145 A 
ATOM     31  F1  UNL     1     -13.310  22.902 -13.414  0.00  0.00    -0.204 F 
ATOM     32  O4  UNL     1     -12.698  27.552 -12.527  0.00  0.00    -0.286 OA
ENDBRANCH   4  25
BRANCH   1  35
ATOM     33  C1  UNL     1     -13.982  29.476 -16.424  0.00  0.00    +0.033 C 
ATOM     34  C2  UNL     1     -13.301  28.377 -17.167  0.00  0.00    -0.003 A 
ATOM     35  C3  UNL     1     -13.894  27.121 -17.372  0.00  0.00    +0.078 A 
ATOM     36  C4  UNL     1     -13.147  26.153 -18.069  0.00  0.00    +0.074 A 
ATOM     37  N1  UNL     1     -11.888  26.379 -18.533  0.00  0.00    -0.247 NA
ATOM     38  C5  UNL     1     -11.352  27.595 -18.298  0.00  0.00    +0.098 A 
ATOM     39  C6  UNL     1     -12.010  28.615 -17.633  0.00  0.00    +0.018 A 
BRANCH  36  40
ATOM     40  C7  UNL     1     -13.760  24.825 -18.408  0.00  0.00    +0.042 C 
ATOM     41  C8  UNL     1     -14.069  24.755 -19.885  0.00  0.00    +0.006 C 
ATOM     42  C9  UNL     1     -12.856  23.679 -18.016  0.00  0.00    +0.006 C 
ENDBRANCH  36  40
ENDBRANCH   1  35
BRANCH  21  43
ATOM     43  C24 UNL     1     -24.137  25.419 -14.939  0.00  0.00    +0.058 C 
ATOM     44  C25 UNL     1     -25.366  25.070 -14.555  0.00  0.00    +0.005 C 
ENDBRANCH  21  43
TORSDOF 4
ENDMDL
