MODEL 1
REMARK VINA RESULT:    -6.404      0.000      0.000
REMARK INTER + INTRA:          -9.989
REMARK INTER:                  -8.650
REMARK INTRA:                  -1.339
REMARK UNBOUND:                -1.339
REMARK  Name = /tmp/tmpmd5867_t/7YCE_candidate_0013.pdb
REMARK  6 active torsions:
REMARK  status: ('A' for Active; 'I' for Inactive)
REMARK    1  A    between atoms: C2_2  and  C3_3
REMARK    2  A    between atoms: C2_2  and  O1_9
REMARK    3  A    between atoms: O1_9  and  C8_10
REMARK    4  A    between atoms: C9_12  and  C12_16
REMARK    5  A    between atoms: C13_19  and  C14_21
REMARK    6  A    between atoms: C20_27  and  C22_31
REMARK                            x       y       z     vdW  Elec       q    Type
REMARK                         _______ _______ _______ _____ _____    ______ ____
ROOT
ATOM      1  C12 UNL     1     -22.060  12.686 -12.823  0.00  0.00    +0.239 A 
ATOM      2  N4  UNL     1     -21.193  13.380 -13.583  0.00  0.00    -0.053 NA
ATOM      3  O2  UNL     1     -21.976  14.354 -14.189  0.00  0.00    -0.337 OA
ATOM      4  C13 UNL     1     -23.254  14.165 -13.749  0.00  0.00    +0.240 A 
ATOM      5  N5  UNL     1     -23.361  13.159 -12.911  0.00  0.00    -0.188 NA
ENDROOT
BRANCH   4   6
ATOM      6  C14 UNL     1     -24.304  15.111 -14.245  0.00  0.00    +0.091 C 
ATOM      7  C15 UNL     1     -24.063  15.392 -15.738  0.00  0.00    +0.013 C 
ATOM      8  C16 UNL     1     -24.529  14.272 -16.657  0.00  0.00    +0.006 C 
ATOM      9  C17 UNL     1     -26.017  14.006 -16.524  0.00  0.00    +0.033 C 
ATOM     10  C18 UNL     1     -26.440  14.050 -15.099  0.00  0.00    +0.006 A 
ATOM     11  C19 UNL     1     -25.704  14.555 -14.041  0.00  0.00    -0.001 A 
ATOM     12  C20 UNL     1     -26.456  14.444 -12.814  0.00  0.00    +0.088 A 
ATOM     13  C21 UNL     1     -27.699  13.864 -13.000  0.00  0.00    +0.127 A 
ATOM     14  S1  UNL     1     -27.961  13.460 -14.642  0.00  0.00    -0.073 S 
ATOM     15  N6  UNL     1     -28.647  13.616 -12.061  0.00  0.00    -0.120 NA
ATOM     16  C23 UNL     1     -24.152  16.464 -13.566  0.00  0.00    +0.014 C 
BRANCH  12  17
ATOM     17  C22 UNL     1     -26.012  14.883 -11.522  0.00  0.00    +0.102 C 
ATOM     18  N7  UNL     1     -25.689  15.241 -10.468  0.00  0.00    -0.191 NA
ENDBRANCH  12  17
ENDBRANCH   4   6
BRANCH   1  21
ATOM     19  C8  UNL     1     -20.369   9.704 -11.619  0.00  0.00    +0.228 A 
ATOM     20  N2  UNL     1     -20.685  10.741 -12.416  0.00  0.00    -0.189 NA
ATOM     21  C9  UNL     1     -21.680  11.539 -11.980  0.00  0.00    +0.205 A 
ATOM     22  N3  UNL     1     -22.355  11.358 -10.829  0.00  0.00    -0.222 NA
ATOM     23  C10 UNL     1     -21.986  10.297 -10.088  0.00  0.00    +0.105 A 
ATOM     24  C11 UNL     1     -20.990   9.415 -10.429  0.00  0.00    +0.078 A 
BRANCH  19  25
ATOM     25  O1  UNL     1     -19.371   8.830 -12.008  0.00  0.00    -0.463 OA
BRANCH  25  27
ATOM     26  C1  UNL     1     -17.702   7.452 -10.978  0.00  0.00    +0.049 C 
ATOM     27  C2  UNL     1     -18.325   8.827 -11.042  0.00  0.00    +0.182 C 
BRANCH  27  28
ATOM     28  C3  UNL     1     -17.291   9.916 -11.284  0.00  0.00    +0.098 C 
ATOM     29  C4  UNL     1     -15.863   9.423 -11.264  0.00  0.00    +0.021 C 
ATOM     30  C5  UNL     1     -15.044  10.687 -11.141  0.00  0.00    +0.019 C 
ATOM     31  C6  UNL     1     -16.018  11.777 -10.730  0.00  0.00    +0.072 C 
ATOM     32  N1  UNL     1     -17.316  11.148 -10.497  0.00  0.00    -0.270 NA
ATOM     33  C7  UNL     1     -17.402  10.862  -9.072  0.00  0.00    +0.090 C 
ENDBRANCH  27  28
ENDBRANCH  25  27
ENDBRANCH  19  25
ENDBRANCH   1  21
TORSDOF 6
ENDMDL
