MODEL 1
REMARK VINA RESULT:    -6.185      0.000      0.000
REMARK INTER + INTRA:          -9.227
REMARK INTER:                  -8.354
REMARK INTRA:                  -0.873
REMARK UNBOUND:                -0.873
REMARK  Name = /tmp/tmphpgfmroq/7YCE_candidate_0045.pdb
REMARK  6 active torsions:
REMARK  status: ('A' for Active; 'I' for Inactive)
REMARK    1  A    between atoms: C3_3  and  C15_20
REMARK    2  A    between atoms: C9_11  and  O3_13
REMARK    3  A    between atoms: O3_13  and  C11_14
REMARK    4  A    between atoms: C15_20  and  C16_21
REMARK    5  A    between atoms: N4_27  and  S1_28
REMARK    6  A    between atoms: S1_28  and  N5_31
REMARK                            x       y       z     vdW  Elec       q    Type
REMARK                         _______ _______ _______ _____ _____    ______ ____
ROOT
ATOM      1  C1  UNL     1     -10.437  -5.322 -14.567  0.00  0.00    +0.031 C 
ATOM      2  C2  UNL     1     -10.943  -3.912 -14.613  0.00  0.00    -0.016 A 
ATOM      3  C3  UNL     1     -11.824  -3.475 -15.530  0.00  0.00    +0.054 A 
ATOM      4  C4  UNL     1     -12.302  -2.076 -15.540  0.00  0.00    +0.342 A 
ATOM      5  O1  UNL     1     -13.143  -1.680 -16.344  0.00  0.00    -0.245 OA
ATOM      6  O2  UNL     1     -11.776  -1.214 -14.583  0.00  0.00    -0.421 OA
ATOM      7  C5  UNL     1     -10.835  -1.661 -13.639  0.00  0.00    +0.151 A 
ATOM      8  C6  UNL     1     -10.409  -2.985 -13.624  0.00  0.00    +0.031 A 
ATOM      9  C7  UNL     1      -9.480  -3.371 -12.657  0.00  0.00    +0.006 A 
ATOM     10  C8  UNL     1      -8.991  -2.448 -11.735  0.00  0.00    +0.038 A 
ATOM     11  C9  UNL     1      -9.415  -1.119 -11.785  0.00  0.00    +0.152 A 
ATOM     12  C10 UNL     1     -10.360  -0.722 -12.727  0.00  0.00    +0.075 A 
ENDROOT
BRANCH  11  13
ATOM     13  O3  UNL     1      -9.015  -0.179 -10.863  0.00  0.00    -0.422 OA
BRANCH  13  14
ATOM     14  C11 UNL     1      -8.539   1.012 -11.387  0.00  0.00    +0.325 A 
ATOM     15  N1  UNL     1      -7.385   0.931 -12.064  0.00  0.00    -0.192 NA
ATOM     16  C12 UNL     1      -6.925   2.097 -12.554  0.00  0.00    +0.105 A 
ATOM     17  C13 UNL     1      -7.532   3.318 -12.380  0.00  0.00    +0.042 A 
ATOM     18  C14 UNL     1      -8.681   3.270 -11.629  0.00  0.00    +0.105 A 
ATOM     19  N2  UNL     1      -9.199   2.147 -11.102  0.00  0.00    -0.192 NA
ENDBRANCH  13  14
ENDBRANCH  11  13
BRANCH   3  20
ATOM     20  C15 UNL     1     -12.437  -4.329 -16.597  0.00  0.00    +0.061 C 
BRANCH  20  21
ATOM     21  C16 UNL     1     -13.789  -4.861 -16.268  0.00  0.00    +0.014 A 
ATOM     22  C17 UNL     1     -14.892  -4.325 -16.928  0.00  0.00    +0.171 A 
ATOM     23  C18 UNL     1     -16.167  -4.682 -16.506  0.00  0.00    +0.200 A 
ATOM     24  N3  UNL     1     -16.395  -5.696 -15.613  0.00  0.00    -0.224 NA
ATOM     25  C19 UNL     1     -15.298  -6.208 -15.019  0.00  0.00    +0.100 A 
ATOM     26  C20 UNL     1     -13.992  -5.820 -15.285  0.00  0.00    +0.019 A 
ATOM     27  N4  UNL     1     -17.343  -4.044 -17.000  0.00  0.00    -0.063 NA
ATOM     28  F1  UNL     1     -14.660  -3.520 -17.976  0.00  0.00    -0.201 F 
BRANCH  27  29
ATOM     29  S1  UNL     1     -17.296  -2.343 -16.812  0.00  0.00    +0.148 S 
ATOM     30  O4  UNL     1     -16.475  -2.018 -15.662  0.00  0.00    -0.135 OA
ATOM     31  O5  UNL     1     -17.045  -1.742 -18.100  0.00  0.00    -0.135 OA
BRANCH  29  32
ATOM     32  N5  UNL     1     -18.908  -2.040 -16.386  0.00  0.00    -0.061 NA
ATOM     33  C21 UNL     1     -19.698  -3.269 -16.367  0.00  0.00    +0.138 C 
ENDBRANCH  29  32
ENDBRANCH  27  29
ENDBRANCH  20  21
ENDBRANCH   3  20
TORSDOF 6
ENDMDL
