MODEL 1
REMARK VINA RESULT:    -6.359      0.000      0.000
REMARK INTER + INTRA:          -9.806
REMARK INTER:                  -7.846
REMARK INTRA:                  -1.960
REMARK UNBOUND:                -1.960
REMARK  Name = /tmp/tmp54tz0r55/7YCE_candidate_0093.pdb
REMARK  4 active torsions:
REMARK  status: ('A' for Active; 'I' for Inactive)
REMARK    1  A    between atoms: C7_9  and  C9_12
REMARK    2  A    between atoms: N3_14  and  C20_27
REMARK    3  A    between atoms: C11_16  and  C12_17
REMARK    4  A    between atoms: C26_34  and  C27_36
REMARK                            x       y       z     vdW  Elec       q    Type
REMARK                         _______ _______ _______ _____ _____    ______ ____
ROOT
ATOM      1  C9  UNL     1      -9.040  -3.345 -13.484  0.00  0.00    +0.033 A 
ATOM      2  C10 UNL     1      -9.919  -4.228 -14.079  0.00  0.00    +0.057 A 
ATOM      3  N3  UNL     1     -11.076  -3.526 -14.247  0.00  0.00    -0.257 N 
ATOM      4  N4  UNL     1     -11.012  -2.258 -13.817  0.00  0.00    -0.170 NA
ATOM      5  C11 UNL     1      -9.766  -2.120 -13.331  0.00  0.00    +0.102 A 
ATOM      6  C29 UNL     1      -9.778  -5.640 -14.480  0.00  0.00    +0.052 C 
ENDROOT
BRANCH   1  15
ATOM      7  C1  UNL     1      -5.542  -4.887 -10.182  0.00  0.00    +0.032 C 
ATOM      8  C2  UNL     1      -5.975  -4.443 -11.542  0.00  0.00    -0.010 A 
ATOM      9  C3  UNL     1      -4.984  -4.360 -12.528  0.00  0.00    +0.018 A 
ATOM     10  C4  UNL     1      -5.385  -3.946 -13.797  0.00  0.00    +0.104 A 
ATOM     11  C5  UNL     1      -6.696  -3.623 -14.116  0.00  0.00    +0.041 A 
ATOM     12  C6  UNL     1      -6.638  -3.265 -15.484  0.00  0.00    +0.124 A 
ATOM     13  N1  UNL     1      -5.407  -3.349 -15.992  0.00  0.00    -0.146 NA
ATOM     14  N2  UNL     1      -4.671  -3.766 -14.950  0.00  0.00    -0.148 NA
ATOM     15  C7  UNL     1      -7.688  -3.707 -13.118  0.00  0.00    +0.016 A 
ATOM     16  C8  UNL     1      -7.311  -4.121 -11.824  0.00  0.00    +0.054 A 
ATOM     17 CL1  UNL     1      -8.494  -4.238 -10.559  0.00  0.00    -0.083 Cl
ENDBRANCH   1  15
BRANCH   5  18
ATOM     18  C12 UNL     1      -9.328  -0.850 -12.755  0.00  0.00    +0.020 A 
ATOM     19  C13 UNL     1     -10.203  -0.111 -11.947  0.00  0.00    +0.005 A 
ATOM     20  C14 UNL     1      -9.770   1.106 -11.407  0.00  0.00    +0.038 A 
ATOM     21  C15 UNL     1      -8.484   1.560 -11.684  0.00  0.00    +0.079 A 
ATOM     22  C16 UNL     1      -7.582   0.852 -12.479  0.00  0.00    +0.019 A 
ATOM     23  C17 UNL     1      -8.046  -0.354 -13.010  0.00  0.00    +0.003 A 
ATOM     24  N5  UNL     1      -8.386   2.754 -11.027  0.00  0.00    -0.249 N 
ATOM     25  N6  UNL     1      -9.468   3.087 -10.300  0.00  0.00    -0.168 NA
ATOM     26  C18 UNL     1     -10.323   2.091 -10.557  0.00  0.00    +0.122 A 
ATOM     27  C19 UNL     1      -7.240   3.635 -11.025  0.00  0.00    +0.154 C 
ENDBRANCH   5  18
BRANCH   3  28
ATOM     28  C20 UNL     1     -12.283  -4.106 -14.860  0.00  0.00    +0.105 C 
ATOM     29  C21 UNL     1     -12.627  -3.428 -16.204  0.00  0.00    +0.028 C 
ATOM     30  C22 UNL     1     -13.925  -2.995 -15.598  0.00  0.00    +0.040 C 
ATOM     31  C23 UNL     1     -13.574  -3.529 -14.243  0.00  0.00    +0.028 C 
ATOM     32  C24 UNL     1     -14.331  -1.562 -15.716  0.00  0.00    +0.095 C 
ATOM     33  N7  UNL     1     -15.515  -2.062 -16.414  0.00  0.00    -0.276 N 
ATOM     34  C25 UNL     1     -15.184  -3.473 -16.242  0.00  0.00    +0.095 C 
ATOM     35  C26 UNL     1     -16.730  -1.446 -16.536  0.00  0.00    +0.249 C 
ATOM     36  O1  UNL     1     -16.943  -0.261 -16.294  0.00  0.00    -0.270 OA
BRANCH  35  37
ATOM     37  C27 UNL     1     -17.797  -2.364 -16.993  0.00  0.00    +0.058 C 
ATOM     38  C28 UNL     1     -18.985  -2.226 -16.385  0.00  0.00    +0.005 C 
ENDBRANCH  35  37
ENDBRANCH   3  28
TORSDOF 4
ENDMDL
