MODEL 1
REMARK VINA RESULT:    -7.229      0.000      0.000
REMARK INTER + INTRA:         -12.482
REMARK INTER:                  -9.765
REMARK INTRA:                  -2.717
REMARK UNBOUND:                -2.717
REMARK  Name = /tmp/tmptfitfxvf/7YCE_candidate_0011.pdb
REMARK  6 active torsions:
REMARK  status: ('A' for Active; 'I' for Inactive)
REMARK    1  A    between atoms: C3_3  and  C8_10
REMARK    2  A    between atoms: C8_10  and  O1_11
REMARK    3  A    between atoms: O1_11  and  C9_12
REMARK    4  A    between atoms: C12_16  and  C24_34
REMARK    5  A    between atoms: C13_17  and  C23_30
REMARK    6  A    between atoms: C26_36  and  C32_45
REMARK                            x       y       z     vdW  Elec       q    Type
REMARK                         _______ _______ _______ _____ _____    ______ ____
ROOT
ATOM      1  C9  UNL     1     -10.602  -1.253 -38.089  0.00  0.00    +0.321 A 
ATOM      2  N2  UNL     1     -10.012  -0.980 -39.258  0.00  0.00    -0.192 NA
ATOM      3  C10 UNL     1      -8.722  -1.320 -39.382  0.00  0.00    +0.116 A 
ATOM      4  C11 UNL     1      -8.046  -1.105 -40.586  0.00  0.00    +0.158 A 
ATOM      5  C12 UNL     1      -6.693  -1.451 -40.798  0.00  0.00    +0.033 A 
ATOM      6  C13 UNL     1      -5.985  -2.038 -39.737  0.00  0.00    +0.074 A 
ATOM      7  C14 UNL     1      -6.654  -2.252 -38.530  0.00  0.00    +0.008 A 
ATOM      8  C15 UNL     1      -8.003  -1.897 -38.333  0.00  0.00    +0.052 A 
ATOM      9  C16 UNL     1      -8.704  -2.108 -37.132  0.00  0.00    +0.138 A 
ATOM     10  N3  UNL     1     -10.006  -1.791 -37.023  0.00  0.00    -0.179 NA
ATOM     11  N4  UNL     1      -8.062  -2.698 -36.020  0.00  0.00    -0.290 N 
ATOM     12  C17 UNL     1      -6.967  -1.836 -35.544  0.00  0.00    +0.109 C 
ATOM     13  C18 UNL     1      -6.431  -2.281 -34.173  0.00  0.00    +0.093 C 
ATOM     14  C19 UNL     1      -6.065  -3.759 -34.193  0.00  0.00    +0.021 C 
ATOM     15  C20 UNL     1      -7.354  -4.481 -33.822  0.00  0.00    +0.021 C 
ATOM     16  C21 UNL     1      -8.377  -3.369 -33.631  0.00  0.00    +0.093 C 
ATOM     17  C22 UNL     1      -9.046  -3.018 -34.969  0.00  0.00    +0.109 C 
ATOM     18  N5  UNL     1      -7.532  -2.240 -33.199  0.00  0.00    -0.217 NA
ATOM     19  F6  UNL     1      -8.722  -0.547 -41.609  0.00  0.00    -0.203 F 
ENDROOT
BRANCH   5  20
ATOM     20  C24 UNL     1      -6.079  -1.173 -42.101  0.00  0.00    +0.004 A 
ATOM     21  C25 UNL     1      -6.112  -2.136 -43.165  0.00  0.00    +0.020 A 
ATOM     22  C26 UNL     1      -6.642  -3.485 -43.260  0.00  0.00    +0.092 A 
ATOM     23  C27 UNL     1      -6.456  -4.065 -44.496  0.00  0.00    +0.128 A 
ATOM     24  S1  UNL     1      -5.646  -3.013 -45.561  0.00  0.00    -0.066 S 
ATOM     25  C28 UNL     1      -5.527  -1.764 -44.385  0.00  0.00    +0.059 A 
ATOM     26  C29 UNL     1      -4.931  -0.501 -44.565  0.00  0.00    +0.146 A 
ATOM     27  C30 UNL     1      -4.908   0.417 -43.525  0.00  0.00    +0.030 A 
ATOM     28  C31 UNL     1      -5.480   0.083 -42.313  0.00  0.00    +0.002 A 
ATOM     29  F5  UNL     1      -4.376  -0.166 -45.739  0.00  0.00    -0.204 F 
ATOM     30  N6  UNL     1      -6.836  -5.307 -44.895  0.00  0.00    -0.120 NA
BRANCH  22  31
ATOM     31  C32 UNL     1      -7.292  -4.193 -42.194  0.00  0.00    +0.102 C 
ATOM     32  N7  UNL     1      -7.817  -4.809 -41.364  0.00  0.00    -0.191 NA
ENDBRANCH  22  31
ENDBRANCH   5  20
BRANCH   6  33
ATOM     33  C23 UNL     1      -4.543  -2.452 -39.840  0.00  0.00    +0.419 C 
ATOM     34  F2  UNL     1      -3.716  -1.397 -40.074  0.00  0.00    -0.166 F 
ATOM     35  F3  UNL     1      -4.297  -3.347 -40.836  0.00  0.00    -0.166 F 
ATOM     36  F4  UNL     1      -4.091  -3.041 -38.699  0.00  0.00    -0.166 F 
ENDBRANCH   6  33
BRANCH   1  37
ATOM     37  O1  UNL     1     -11.924  -0.918 -37.901  0.00  0.00    -0.445 OA
BRANCH  37  38
ATOM     38  C8  UNL     1     -12.464  -1.736 -36.873  0.00  0.00    +0.223 C 
BRANCH  38  41
ATOM     39  C1  UNL     1     -13.854  -3.456 -39.689  0.00  0.00    +0.019 C 
ATOM     40  C2  UNL     1     -13.983  -2.281 -38.741  0.00  0.00    +0.020 C 
ATOM     41  C3  UNL     1     -13.464  -2.760 -37.401  0.00  0.00    +0.089 C 
ATOM     42  C4  UNL     1     -14.612  -3.021 -36.446  0.00  0.00    +0.055 C 
ATOM     43  C5  UNL     1     -14.128  -4.184 -35.612  0.00  0.00    +0.178 C 
ATOM     44  C6  UNL     1     -13.145  -4.922 -36.505  0.00  0.00    +0.108 C 
ATOM     45  N1  UNL     1     -12.833  -4.066 -37.659  0.00  0.00    -0.269 NA
ATOM     46  C7  UNL     1     -13.528  -4.641 -38.810  0.00  0.00    +0.072 C 
ATOM     47  F1  UNL     1     -15.190  -4.989 -35.339  0.00  0.00    -0.236 F 
ENDBRANCH  38  41
ENDBRANCH  37  38
ENDBRANCH   1  37
TORSDOF 6
ENDMDL
