MODEL 1
REMARK VINA RESULT:    -7.407      0.000      0.000
REMARK INTER + INTRA:         -10.683
REMARK INTER:                  -9.572
REMARK INTRA:                  -1.112
REMARK UNBOUND:                -1.112
REMARK  Name = /tmp/tmpmv0wbwcg/7YCE_candidate_0079.pdb
REMARK  5 active torsions:
REMARK  status: ('A' for Active; 'I' for Inactive)
REMARK    1  A    between atoms: C2_2  and  C3_3
REMARK    2  A    between atoms: C13_17  and  C14_18
REMARK    3  A    between atoms: C20_26  and  O5_29
REMARK    4  A    between atoms: O5_29  and  C23_30
REMARK    5  A    between atoms: C26_35  and  N4_38
REMARK                            x       y       z     vdW  Elec       q    Type
REMARK                         _______ _______ _______ _____ _____    ______ ____
ROOT
ATOM      1  C3  UNL     1     -22.145  13.315 -12.802  0.00  0.00    -0.021 A 
ATOM      2  C4  UNL     1     -23.284  13.867 -13.350  0.00  0.00    +0.016 A 
ATOM      3  C5  UNL     1     -23.447  14.885 -14.445  0.00  0.00    +0.137 C 
ATOM      4  N1  UNL     1     -24.903  15.022 -14.518  0.00  0.00    -0.290 N 
ATOM      5  C6  UNL     1     -25.541  14.201 -13.608  0.00  0.00    +0.080 A 
ATOM      6  C7  UNL     1     -26.873  14.164 -13.513  0.00  0.00    +0.017 A 
ATOM      7  C8  UNL     1     -27.654  15.019 -14.396  0.00  0.00    +0.021 A 
ATOM      8  C9  UNL     1     -27.037  15.821 -15.281  0.00  0.00    +0.076 A 
ATOM      9  C10 UNL     1     -25.550  15.857 -15.391  0.00  0.00    +0.260 A 
ATOM     10  O1  UNL     1     -24.990  16.582 -16.204  0.00  0.00    -0.267 OA
ATOM     11  C11 UNL     1     -27.792  16.692 -16.207  0.00  0.00    +0.240 C 
ATOM     12  O2  UNL     1     -29.096  17.010 -15.707  0.00  0.00    -0.441 OA
ATOM     13  C12 UNL     1     -29.854  15.975 -15.253  0.00  0.00    +0.349 C 
ATOM     14  O3  UNL     1     -31.053  15.929 -15.511  0.00  0.00    -0.247 OA
ATOM     15  C13 UNL     1     -29.152  14.982 -14.299  0.00  0.00    +0.233 C 
ATOM     16  O4  UNL     1     -29.592  13.668 -14.610  0.00  0.00    -0.210 OA
ATOM     17  C16 UNL     1     -24.526  13.471 -12.866  0.00  0.00    +0.095 A 
ATOM     18  N2  UNL     1     -24.743  12.579 -11.892  0.00  0.00    -0.244 NA
ATOM     19  C17 UNL     1     -23.640  12.024 -11.358  0.00  0.00    +0.081 A 
ATOM     20  C18 UNL     1     -22.319  12.360 -11.779  0.00  0.00    +0.017 A 
ATOM     21  C19 UNL     1     -21.221  11.738 -11.174  0.00  0.00    +0.039 A 
ATOM     22  C20 UNL     1     -21.421  10.781 -10.183  0.00  0.00    +0.150 A 
ATOM     23  C21 UNL     1     -22.697  10.464  -9.745  0.00  0.00    +0.039 A 
ATOM     24  C22 UNL     1     -23.789  11.084 -10.347  0.00  0.00    +0.022 A 
ENDROOT
BRANCH   1  26
ATOM     25  C1  UNL     1     -20.323  14.965 -12.625  0.00  0.00    +0.005 C 
ATOM     26  C2  UNL     1     -20.793  13.700 -13.305  0.00  0.00    +0.026 C 
ENDBRANCH   1  26
BRANCH  15  27
ATOM     27  C14 UNL     1     -29.570  15.357 -12.882  0.00  0.00    +0.046 C 
ATOM     28  C15 UNL     1     -28.972  16.652 -12.381  0.00  0.00    +0.004 C 
ENDBRANCH  15  27
BRANCH  22  29
ATOM     29  O5  UNL     1     -20.332  10.204  -9.530  0.00  0.00    -0.410 OA
BRANCH  29  30
ATOM     30  C23 UNL     1     -19.740   9.166 -10.242  0.00  0.00    +0.409 C 
ATOM     31  O6  UNL     1     -20.311   8.140 -10.599  0.00  0.00    -0.226 OA
ATOM     32  N3  UNL     1     -18.412   9.419 -10.505  0.00  0.00    -0.246 N 
ATOM     33  C24 UNL     1     -17.645   8.416 -11.205  0.00  0.00    +0.098 C 
ATOM     34  C25 UNL     1     -16.163   8.560 -10.938  0.00  0.00    +0.038 C 
ATOM     35  C26 UNL     1     -15.675   9.949 -11.306  0.00  0.00    +0.061 C 
ATOM     36  C27 UNL     1     -16.654  11.059 -10.979  0.00  0.00    +0.038 C 
ATOM     37  C28 UNL     1     -17.751  10.617 -10.035  0.00  0.00    +0.098 C 
BRANCH  35  38
ATOM     38  N4  UNL     1     -14.344  10.268 -10.817  0.00  0.00    -0.274 NA
ATOM     39  C29 UNL     1     -14.013   9.363  -9.723  0.00  0.00    +0.072 C 
ATOM     40  C30 UNL     1     -13.336  10.012  -8.530  0.00  0.00    +0.017 C 
ATOM     41  C31 UNL     1     -12.295  11.028  -8.948  0.00  0.00    +0.003 C 
ATOM     42  C32 UNL     1     -12.825  11.988  -9.994  0.00  0.00    +0.017 C 
ATOM     43  C33 UNL     1     -14.246  11.664 -10.411  0.00  0.00    +0.072 C 
ENDBRANCH  35  38
ENDBRANCH  29  30
ENDBRANCH  22  29
TORSDOF 5
ENDMDL
