MODEL 1
REMARK VINA RESULT:    -6.895      0.000      0.000
REMARK INTER + INTRA:         -12.158
REMARK INTER:                  -9.717
REMARK INTRA:                  -2.441
REMARK UNBOUND:                -2.441
REMARK  Name = /tmp/tmp2wfwl6tk/7YCE_candidate_0097.pdb
REMARK  7 active torsions:
REMARK  status: ('A' for Active; 'I' for Inactive)
REMARK    1  A    between atoms: C2_2  and  N1_3
REMARK    2  A    between atoms: C13_16  and  N8_52
REMARK    3  A    between atoms: C24_32  and  C25_33
REMARK    4  A    between atoms: C26_34  and  C35_46
REMARK    5  A    between atoms: C28_37  and  N6_39
REMARK    6  A    between atoms: C35_46  and  O4_48
REMARK    7  A    between atoms: C40_53  and  C41_55
REMARK                            x       y       z     vdW  Elec       q    Type
REMARK                         _______ _______ _______ _____ _____    ______ ____
ROOT
ATOM      1  N1  UNL     1     -26.281  15.380 -15.374  0.00  0.00    -0.327 N 
ATOM      2  C3  UNL     1     -25.037  15.144 -14.841  0.00  0.00    +0.060 A 
ATOM      3  C4  UNL     1     -25.212  14.941 -13.473  0.00  0.00    +0.013 A 
ATOM      4  C5  UNL     1     -24.072  14.702 -12.676  0.00  0.00    +0.003 A 
ATOM      5  C6  UNL     1     -22.799  14.685 -13.262  0.00  0.00    +0.018 A 
ATOM      6  C7  UNL     1     -22.677  14.880 -14.637  0.00  0.00    +0.003 A 
ATOM      7  C8  UNL     1     -23.782  15.108 -15.457  0.00  0.00    +0.017 A 
ATOM      8  C9  UNL     1     -21.609  14.521 -12.444  0.00  0.00    +0.088 A 
ATOM      9  C10 UNL     1     -20.332  14.654 -12.945  0.00  0.00    +0.056 A 
ATOM     10  S1  UNL     1     -19.169  14.513 -11.719  0.00  0.00    -0.070 S 
ATOM     11  C11 UNL     1     -20.433  14.245 -10.588  0.00  0.00    +0.090 A 
ATOM     12  N2  UNL     1     -21.657  14.248 -11.080  0.00  0.00    -0.243 NA
ATOM     13  C12 UNL     1     -20.089  14.072  -9.155  0.00  0.00    +0.084 C 
ATOM     14  C13 UNL     1     -20.079  12.639  -8.672  0.00  0.00    +0.179 C 
ATOM     15  C14 UNL     1     -21.482  12.118  -8.424  0.00  0.00    +0.260 C 
ATOM     16  O1  UNL     1     -22.048  12.447  -7.375  0.00  0.00    -0.272 OA
ATOM     17  N3  UNL     1     -22.098  11.384  -9.426  0.00  0.00    -0.205 N 
ATOM     18  C15 UNL     1     -21.513  11.144 -10.739  0.00  0.00    +0.113 C 
ATOM     19  C16 UNL     1     -22.455  10.513 -11.748  0.00  0.00    +0.025 C 
ATOM     20  C17 UNL     1     -23.890  10.987 -11.654  0.00  0.00    +0.033 C 
ATOM     21  C18 UNL     1     -24.180  11.740 -10.376  0.00  0.00    +0.192 C 
ATOM     22  N4  UNL     1     -23.467  11.104  -9.271  0.00  0.00    -0.118 NA
ATOM     23  C19 UNL     1     -25.661  11.737 -10.112  0.00  0.00    +0.335 C 
ATOM     24  O2  UNL     1     -26.372  10.761  -9.922  0.00  0.00    -0.248 OA
ATOM     25  O3  UNL     1     -26.106  13.021 -10.211  0.00  0.00    -0.448 OA
ATOM     26  C20 UNL     1     -27.527  13.106 -10.220  0.00  0.00    +0.209 C 
ATOM     27  C21 UNL     1     -27.988  13.630 -11.569  0.00  0.00    +0.045 C 
ATOM     28  C22 UNL     1     -27.248  14.923 -11.872  0.00  0.00    +0.031 C 
ATOM     29  C23 UNL     1     -26.612  15.058 -13.205  0.00  0.00    -0.005 A 
ATOM     30  C24 UNL     1     -27.252  15.356 -14.402  0.00  0.00    +0.057 A 
ATOM     31  C38 UNL     1     -29.468  13.927 -11.482  0.00  0.00    +0.004 C 
ATOM     32  C39 UNL     1     -27.796  12.544 -12.609  0.00  0.00    +0.004 C 
ENDROOT
BRANCH  30  33
ATOM     33  C25 UNL     1     -28.665  15.621 -14.668  0.00  0.00    +0.033 A 
ATOM     34  C26 UNL     1     -29.249  16.876 -14.499  0.00  0.00    +0.087 A 
ATOM     35  N5  UNL     1     -30.565  17.110 -14.751  0.00  0.00    -0.244 NA
ATOM     36  C27 UNL     1     -31.299  16.062 -15.196  0.00  0.00    +0.113 A 
ATOM     37  C28 UNL     1     -30.837  14.761 -15.391  0.00  0.00    +0.067 A 
ATOM     38  C29 UNL     1     -29.482  14.579 -15.116  0.00  0.00    +0.019 A 
BRANCH  37  39
ATOM     39  N6  UNL     1     -31.627  13.738 -15.901  0.00  0.00    -0.303 N 
ATOM     40  C30 UNL     1     -32.239  12.838 -14.925  0.00  0.00    +0.108 C 
ATOM     41  C31 UNL     1     -33.746  12.672 -15.142  0.00  0.00    +0.094 C 
ATOM     42  N7  UNL     1     -34.192  12.351 -16.498  0.00  0.00    -0.269 NA
ATOM     43  C32 UNL     1     -33.260  12.855 -17.503  0.00  0.00    +0.094 C 
ATOM     44  C33 UNL     1     -32.442  14.071 -17.068  0.00  0.00    +0.108 C 
ATOM     45  C34 UNL     1     -34.199  10.907 -16.627  0.00  0.00    +0.090 C 
ENDBRANCH  37  39
BRANCH  34  46
ATOM     46  C35 UNL     1     -28.405  18.045 -14.061  0.00  0.00    +0.155 C 
ATOM     47  C36 UNL     1     -28.482  18.312 -12.574  0.00  0.00    +0.039 C 
BRANCH  46  48
ATOM     48  O4  UNL     1     -28.584  19.222 -14.839  0.00  0.00    -0.348 OA
ATOM     49  C37 UNL     1     -28.974  20.317 -14.014  0.00  0.00    +0.175 C 
ENDBRANCH  46  48
ENDBRANCH  34  46
ENDBRANCH  30  33
BRANCH  14  50
ATOM     50  N8  UNL     1     -19.156  11.751  -9.334  0.00  0.00    -0.197 NA
ATOM     51  C40 UNL     1     -17.887  11.583  -8.838  0.00  0.00    +0.241 C 
ATOM     52  O5  UNL     1     -17.460  12.123  -7.827  0.00  0.00    -0.273 OA
BRANCH  51  53
ATOM     53  C41 UNL     1     -17.050  10.674  -9.643  0.00  0.00    +0.078 C 
ATOM     54  C42 UNL     1     -17.510  10.234 -11.004  0.00  0.00    +0.010 C 
ATOM     55  C43 UNL     1     -16.360  11.183 -10.878  0.00  0.00    +0.009 C 
ATOM     56  C44 UNL     1     -14.998  10.681 -11.174  0.00  0.00    +0.001 C 
ENDBRANCH  51  53
ENDBRANCH  14  50
BRANCH   1  58
ATOM     57  C1  UNL     1     -26.621  14.485 -17.616  0.00  0.00    +0.026 C 
ATOM     58  C2  UNL     1     -26.507  15.733 -16.767  0.00  0.00    +0.106 C 
ENDBRANCH   1  58
TORSDOF 7
ENDMDL
