MODEL 1
REMARK VINA RESULT:    -5.770      0.000      0.000
REMARK INTER + INTRA:         -10.602
REMARK INTER:                  -8.468
REMARK INTRA:                  -2.134
REMARK UNBOUND:                -2.134
REMARK  Name = /tmp/tmpvvuiwg93/7YCE_candidate_0002.pdb
REMARK  8 active torsions:
REMARK  status: ('A' for Active; 'I' for Inactive)
REMARK    1  A    between atoms: C2_2  and  C3_3
REMARK    2  A    between atoms: C4_4  and  N3_16
REMARK    3  A    between atoms: C7_7  and  N1_9
REMARK    4  A    between atoms: C16_20  and  C26_35
REMARK    5  A    between atoms: N6_23  and  C18_24
REMARK    6  A    between atoms: C18_24  and  C19_25
REMARK    7  A    between atoms: C19_25  and  C20_26
REMARK    8  A    between atoms: C20_26  and  N7_27
REMARK                            x       y       z     vdW  Elec       q    Type
REMARK                         _______ _______ _______ _____ _____    ______ ____
ROOT
ATOM      1  N3  UNL     1     -15.437  27.131 -18.701  0.00  0.00    -0.178 NA
ATOM      2  C14 UNL     1     -16.578  26.733 -17.974  0.00  0.00    +0.242 A 
ATOM      3  N4  UNL     1     -17.713  26.595 -18.672  0.00  0.00    -0.211 NA
ATOM      4  C15 UNL     1     -18.806  26.224 -17.992  0.00  0.00    +0.109 A 
ATOM      5  C16 UNL     1     -18.839  25.992 -16.647  0.00  0.00    +0.124 A 
ATOM      6  C17 UNL     1     -17.642  26.141 -15.990  0.00  0.00    +0.156 A 
ATOM      7  N5  UNL     1     -16.521  26.507 -16.647  0.00  0.00    -0.196 NA
ATOM      8  N6  UNL     1     -17.604  25.891 -14.604  0.00  0.00    -0.220 NA
ENDROOT
BRANCH   1  10
ATOM      9  C3  UNL     1     -13.166  26.293 -18.854  0.00  0.00    -0.006 A 
ATOM     10  C4  UNL     1     -14.088  27.190 -18.292  0.00  0.00    +0.070 A 
ATOM     11  C5  UNL     1     -13.625  28.080 -17.324  0.00  0.00    +0.018 A 
ATOM     12  C6  UNL     1     -12.283  28.085 -16.926  0.00  0.00    +0.016 A 
ATOM     13  C7  UNL     1     -11.354  27.191 -17.469  0.00  0.00    +0.048 A 
ATOM     14  C8  UNL     1     -11.834  26.288 -18.422  0.00  0.00    +0.012 A 
BRANCH  13  15
ATOM     15  N1  UNL     1     -10.037  27.129 -17.002  0.00  0.00    -0.305 N 
ATOM     16  C9  UNL     1      -9.038  26.936 -18.059  0.00  0.00    +0.108 C 
ATOM     17  C10 UNL     1      -7.648  26.736 -17.453  0.00  0.00    +0.094 C 
ATOM     18  N2  UNL     1      -7.245  27.848 -16.581  0.00  0.00    -0.269 NA
ATOM     19  C11 UNL     1      -8.250  27.959 -15.514  0.00  0.00    +0.094 C 
ATOM     20  C12 UNL     1      -9.674  28.176 -16.042  0.00  0.00    +0.108 C 
ATOM     21  C13 UNL     1      -6.001  27.451 -15.945  0.00  0.00    +0.090 C 
ENDBRANCH  13  15
BRANCH   9  23
ATOM     22  C1  UNL     1     -13.910  23.975 -19.249  0.00  0.00    +0.005 C 
ATOM     23  C2  UNL     1     -13.579  25.299 -19.896  0.00  0.00    +0.028 C 
ENDBRANCH   9  23
ENDBRANCH   1  10
BRANCH   5  24
ATOM     24  C26 UNL     1     -20.101  25.604 -15.983  0.00  0.00    +0.423 C 
ATOM     25  F1  UNL     1     -21.119  25.368 -16.857  0.00  0.00    -0.166 F 
ATOM     26  F2  UNL     1     -20.576  26.566 -15.141  0.00  0.00    -0.166 F 
ATOM     27  F3  UNL     1     -19.984  24.482 -15.218  0.00  0.00    -0.166 F 
ENDBRANCH   5  24
BRANCH   8  28
ATOM     28  C18 UNL     1     -16.266  26.007 -14.048  0.00  0.00    +0.116 C 
BRANCH  28  29
ATOM     29  C19 UNL     1     -16.029  24.894 -13.060  0.00  0.00    +0.045 C 
BRANCH  29  30
ATOM     30  C20 UNL     1     -14.925  24.007 -13.593  0.00  0.00    +0.095 C 
BRANCH  30  31
ATOM     31  N7  UNL     1     -13.622  24.606 -13.419  0.00  0.00    -0.277 N 
ATOM     32  C21 UNL     1     -13.158  24.789 -12.054  0.00  0.00    +0.125 C 
ATOM     33  C22 UNL     1     -11.990  23.878 -11.700  0.00  0.00    +0.164 C 
ATOM     34  O1  UNL     1     -10.758  24.437 -12.147  0.00  0.00    -0.351 OA
ATOM     35  C23 UNL     1     -10.678  24.310 -13.569  0.00  0.00    +0.152 C 
ATOM     36  C24 UNL     1     -11.477  25.421 -14.216  0.00  0.00    +0.117 C 
ATOM     37  C25 UNL     1     -12.835  24.872 -14.521  0.00  0.00    +0.228 C 
ATOM     38  O2  UNL     1     -13.198  24.673 -15.680  0.00  0.00    -0.275 OA
ENDBRANCH  30  31
ENDBRANCH  29  30
ENDBRANCH  28  29
ENDBRANCH   8  28
TORSDOF 8
ENDMDL
