MODEL 1
REMARK VINA RESULT:    -4.110      0.000      0.000
REMARK INTER + INTRA:          -7.755
REMARK INTER:                  -6.993
REMARK INTRA:                  -0.762
REMARK UNBOUND:                -0.762
REMARK  Name = /tmp/tmpstd7_lfl/7YCE_candidate_0023.pdb
REMARK  12 active torsions:
REMARK  status: ('A' for Active; 'I' for Inactive)
REMARK    1  A    between atoms: C1_1  and  C2_2
REMARK    2  A    between atoms: C1_1  and  N1_4
REMARK    3  A    between atoms: N1_4  and  C3_5
REMARK    4  A    between atoms: C5_7  and  C13_21
REMARK    5  A    between atoms: C7_9  and  C9_12
REMARK    6  A    between atoms: N2_14  and  C10_15
REMARK    7  A    between atoms: C10_15  and  C11_16
REMARK    8  A    between atoms: C11_16  and  C12_17
REMARK    9  A    between atoms: N3_23  and  C14_24
REMARK   10  A    between atoms: C14_24  and  C15_25
REMARK   11  A    between atoms: C15_25  and  C16_26
REMARK   12  A    between atoms: C17_30  and  C18_32
REMARK                            x       y       z     vdW  Elec       q    Type
REMARK                         _______ _______ _______ _____ _____    ______ ____
ROOT
ATOM      1  C3  UNL     1     -14.447  26.469 -16.711  0.00  0.00    +0.065 A 
ATOM      2  C4  UNL     1     -15.836  26.665 -16.899  0.00  0.00    +0.049 A 
ATOM      3  C5  UNL     1     -16.746  26.337 -15.871  0.00  0.00    +0.067 A 
ATOM      4  C6  UNL     1     -16.286  25.811 -14.649  0.00  0.00    +0.040 A 
ATOM      5  C7  UNL     1     -14.906  25.619 -14.456  0.00  0.00    +0.067 A 
ATOM      6  C8  UNL     1     -13.986  25.951 -15.474  0.00  0.00    +0.049 A 
ATOM      7  I1  UNL     1     -11.888  25.572 -15.172  0.00  0.00    -0.041 I 
ATOM      8  I2  UNL     1     -17.675  25.310 -13.100  0.00  0.00    -0.042 I 
ATOM      9  I3  UNL     1     -16.565  27.548 -18.719  0.00  0.00    -0.041 I 
ENDROOT
BRANCH   1  10
ATOM     10  N1  UNL     1     -13.531  26.795 -17.747  0.00  0.00    -0.253 N 
ATOM     11  C17 UNL     1     -13.123  25.913 -18.743  0.00  0.00    +0.263 C 
ATOM     12  O8  UNL     1     -12.296  26.233 -19.598  0.00  0.00    -0.272 OA
BRANCH  11  13
ATOM     13  C18 UNL     1     -13.760  24.534 -18.758  0.00  0.00    +0.267 C 
ATOM     14  O9  UNL     1     -12.922  23.579 -18.139  0.00  0.00    -0.210 OA
ENDBRANCH  11  13
BRANCH  10  15
ATOM     15  C1  UNL     1     -12.859  28.080 -17.644  0.00  0.00    +0.134 C 
BRANCH  15  16
ATOM     16  C2  UNL     1     -13.518  29.012 -16.647  0.00  0.00    +0.204 C 
ATOM     17  O1  UNL     1     -12.681  30.148 -16.484  0.00  0.00    -0.218 OA
ENDBRANCH  15  16
ENDBRANCH  10  15
ENDBRANCH   1  10
BRANCH   5  18
ATOM     18  C9  UNL     1     -14.413  25.083 -13.175  0.00  0.00    +0.266 C 
ATOM     19  O2  UNL     1     -14.173  25.841 -12.245  0.00  0.00    -0.268 OA
ATOM     20  N2  UNL     1     -14.279  23.716 -13.162  0.00  0.00    -0.199 NA
BRANCH  20  21
ATOM     21  C10 UNL     1     -13.694  22.998 -12.053  0.00  0.00    +0.151 C 
BRANCH  21  22
ATOM     22  C11 UNL     1     -14.663  22.117 -11.292  0.00  0.00    +0.206 C 
ATOM     23  O4  UNL     1     -15.592  22.961 -10.624  0.00  0.00    -0.218 OA
BRANCH  22  24
ATOM     24  C12 UNL     1     -13.978  21.233 -10.273  0.00  0.00    +0.217 C 
ATOM     25  O3  UNL     1     -14.644  19.986 -10.142  0.00  0.00    -0.218 OA
ENDBRANCH  22  24
ENDBRANCH  21  22
ENDBRANCH  20  21
ENDBRANCH   5  18
BRANCH   3  26
ATOM     26  C13 UNL     1     -18.192  26.503 -16.096  0.00  0.00    +0.266 C 
ATOM     27  O5  UNL     1     -18.854  25.576 -16.545  0.00  0.00    -0.268 OA
ATOM     28  N3  UNL     1     -18.673  27.746 -15.757  0.00  0.00    -0.199 NA
BRANCH  28  29
ATOM     29  C14 UNL     1     -20.065  28.078 -15.949  0.00  0.00    +0.151 C 
BRANCH  29  30
ATOM     30  C15 UNL     1     -20.266  29.101 -17.047  0.00  0.00    +0.206 C 
ATOM     31  O7  UNL     1     -19.113  29.925 -17.116  0.00  0.00    -0.218 OA
BRANCH  30  32
ATOM     32  C16 UNL     1     -20.498  28.431 -18.383  0.00  0.00    +0.217 C 
ATOM     33  O6  UNL     1     -21.251  27.238 -18.232  0.00  0.00    -0.218 OA
ENDBRANCH  30  32
ENDBRANCH  29  30
ENDBRANCH  28  29
ENDBRANCH   3  26
TORSDOF 12
ENDMDL
