MODEL 1
REMARK VINA RESULT:    -6.383      0.000      0.000
REMARK INTER + INTRA:          -7.888
REMARK INTER:                  -7.129
REMARK INTRA:                  -0.758
REMARK UNBOUND:                -0.758
REMARK  Name = /tmp/tmpt5nyl0k8/7YCE_candidate_0006.pdb
REMARK  2 active torsions:
REMARK  status: ('A' for Active; 'I' for Inactive)
REMARK    1  A    between atoms: C2_2  and  C3_3
REMARK    2  A    between atoms: C12_17  and  C16_22
REMARK                            x       y       z     vdW  Elec       q    Type
REMARK                         _______ _______ _______ _____ _____    ______ ____
ROOT
ATOM      1  C3  UNL     1     -17.933   8.053  -9.625  0.00  0.00    +0.249 C 
ATOM      2  O1  UNL     1     -17.918   7.394 -10.660  0.00  0.00    -0.270 OA
ATOM      3  N1  UNL     1     -19.013   8.817  -9.234  0.00  0.00    -0.273 N 
ATOM      4  C4  UNL     1     -20.075   8.995 -10.206  0.00  0.00    +0.115 C 
ATOM      5  C5  UNL     1     -19.898  10.319 -10.954  0.00  0.00    +0.114 C 
ATOM      6  N2  UNL     1     -19.804  11.438 -10.002  0.00  0.00    -0.290 N 
ATOM      7  C6  UNL     1     -18.728  11.249  -9.017  0.00  0.00    +0.114 C 
ATOM      8  C7  UNL     1     -18.883   9.913  -8.285  0.00  0.00    +0.115 C 
ATOM      9  C8  UNL     1     -19.605  12.643 -10.719  0.00  0.00    +0.135 A 
ATOM     10  N3  UNL     1     -18.448  13.305 -10.545  0.00  0.00    -0.209 NA
ATOM     11  C9  UNL     1     -18.284  14.441 -11.233  0.00  0.00    +0.200 A 
ATOM     12  N4  UNL     1     -19.171  14.982 -12.073  0.00  0.00    -0.222 NA
ATOM     13  C10 UNL     1     -20.338  14.342 -12.227  0.00  0.00    +0.113 A 
ATOM     14  C11 UNL     1     -21.330  14.860 -13.067  0.00  0.00    +0.159 A 
ATOM     15  C12 UNL     1     -22.580  14.248 -13.266  0.00  0.00    +0.041 A 
ATOM     16  C13 UNL     1     -22.828  13.057 -12.580  0.00  0.00    +0.060 A 
ATOM     17  C14 UNL     1     -21.858  12.520 -11.741  0.00  0.00    +0.016 A 
ATOM     18  C15 UNL     1     -20.611  13.144 -11.561  0.00  0.00    +0.052 A 
ATOM     19 CL1  UNL     1     -24.299  12.173 -12.746  0.00  0.00    -0.082 Cl
ATOM     20  F2  UNL     1     -21.078  16.011 -13.721  0.00  0.00    -0.203 F 
ENDROOT
BRANCH  15  21
ATOM     21  C16 UNL     1     -23.565  14.874 -14.148  0.00  0.00    +0.021 A 
ATOM     22  C17 UNL     1     -24.497  15.796 -13.606  0.00  0.00    +0.092 A 
ATOM     23  C18 UNL     1     -25.430  16.391 -14.456  0.00  0.00    +0.077 A 
ATOM     24  C19 UNL     1     -25.454  16.098 -15.825  0.00  0.00    +0.148 A 
ATOM     25  C20 UNL     1     -24.534  15.196 -16.351  0.00  0.00    +0.030 A 
ATOM     26  C21 UNL     1     -23.600  14.593 -15.522  0.00  0.00    +0.004 A 
ATOM     27  F1  UNL     1     -26.351  16.672 -16.638  0.00  0.00    -0.204 F 
ATOM     28  S1  UNL     1     -26.431  17.450 -13.545  0.00  0.00    -0.046 S 
ATOM     29  C22 UNL     1     -25.569  17.052 -12.110  0.00  0.00    +0.201 A 
ATOM     30  N5  UNL     1     -24.591  16.187 -12.276  0.00  0.00    -0.221 NA
ATOM     31  N6  UNL     1     -25.916  17.620 -10.927  0.00  0.00    -0.100 NA
ENDBRANCH  15  21
BRANCH   1  33
ATOM     32  C1  UNL     1     -16.617   7.047  -7.866  0.00  0.00    +0.005 C 
ATOM     33  C2  UNL     1     -16.791   8.090  -8.680  0.00  0.00    +0.058 C 
ENDBRANCH   1  33
TORSDOF 2
ENDMDL
