MODEL 1
REMARK VINA RESULT:    -6.169      0.000      0.000
REMARK INTER + INTRA:          -8.520
REMARK INTER:                  -7.973
REMARK INTRA:                  -0.548
REMARK UNBOUND:                -0.548
REMARK  Name = /tmp/tmppe58pyxy/7YCE_candidate_0040.pdb
REMARK  5 active torsions:
REMARK  status: ('A' for Active; 'I' for Inactive)
REMARK    1  A    between atoms: C6_6  and  C7_8
REMARK    2  A    between atoms: N3_14  and  C11_15
REMARK    3  A    between atoms: N6_23  and  C16_24
REMARK    4  A    between atoms: C16_24  and  C17_25
REMARK    5  A    between atoms: C17_25  and  N7_26
REMARK                            x       y       z     vdW  Elec       q    Type
REMARK                         _______ _______ _______ _____ _____    ______ ____
ROOT
ATOM      1  C1  UNL     1     -14.042  -5.413 -14.957  0.00  0.00    +0.025 C 
ATOM      2  C2  UNL     1     -13.294  -4.574 -15.964  0.00  0.00    +0.085 C 
ATOM      3  C3  UNL     1     -12.377  -3.607 -15.306  0.00  0.00    +0.028 A 
ATOM      4  C4  UNL     1     -12.688  -2.303 -15.578  0.00  0.00    +0.058 A 
ATOM      5  C5  UNL     1     -11.807  -1.406 -14.960  0.00  0.00    +0.013 A 
ATOM      6  C6  UNL     1     -10.828  -2.063 -14.223  0.00  0.00    +0.047 A 
ATOM      7  S1  UNL     1     -11.042  -3.790 -14.315  0.00  0.00    -0.088 S 
ATOM      8  C15 UNL     1     -13.842  -2.269 -16.436  0.00  0.00    +0.249 C 
ATOM      9  O1  UNL     1     -14.400  -1.282 -16.887  0.00  0.00    -0.270 OA
ATOM     10  N6  UNL     1     -14.179  -3.607 -16.636  0.00  0.00    -0.274 N 
ATOM     11  C22 UNL     1     -12.567  -5.440 -16.966  0.00  0.00    +0.025 C 
ENDROOT
BRANCH   6  12
ATOM     12  C7  UNL     1      -9.731  -1.469 -13.449  0.00  0.00    +0.092 A 
ATOM     13  N1  UNL     1     -10.116  -0.524 -12.563  0.00  0.00    -0.212 NA
ATOM     14  C8  UNL     1      -9.169   0.077 -11.817  0.00  0.00    +0.242 A 
ATOM     15  N2  UNL     1      -7.867  -0.234 -11.924  0.00  0.00    -0.211 NA
ATOM     16  C9  UNL     1      -7.529  -1.182 -12.818  0.00  0.00    +0.103 A 
ATOM     17  C10 UNL     1      -8.420  -1.847 -13.620  0.00  0.00    +0.040 A 
ATOM     18  N3  UNL     1      -9.617   1.060 -10.902  0.00  0.00    -0.159 NA
BRANCH  18  19
ATOM     19  C11 UNL     1      -8.821   1.799 -10.090  0.00  0.00    +0.153 A 
ATOM     20  C12 UNL     1      -8.268   1.609  -8.842  0.00  0.00    +0.058 A 
ATOM     21  C13 UNL     1      -7.532   2.786  -8.587  0.00  0.00    +0.123 A 
ATOM     22  N4  UNL     1      -7.604   3.662  -9.594  0.00  0.00    -0.166 NA
ATOM     23  N5  UNL     1      -8.393   3.036 -10.484  0.00  0.00    -0.234 N 
ATOM     24  C14 UNL     1      -8.702   3.699 -11.734  0.00  0.00    +0.155 C 
ENDBRANCH  18  19
ENDBRANCH   6  12
BRANCH  10  25
ATOM     25  C16 UNL     1     -15.287  -4.028 -17.464  0.00  0.00    +0.111 C 
BRANCH  25  26
ATOM     26  C17 UNL     1     -16.528  -4.381 -16.655  0.00  0.00    +0.094 C 
BRANCH  26  27
ATOM     27  N7  UNL     1     -17.727  -3.783 -17.237  0.00  0.00    -0.267 NA
ATOM     28  C18 UNL     1     -18.762  -3.809 -16.198  0.00  0.00    +0.105 C 
ATOM     29  C19 UNL     1     -19.843  -2.767 -16.466  0.00  0.00    +0.159 C 
ATOM     30  O2  UNL     1     -19.349  -1.426 -16.394  0.00  0.00    -0.351 OA
ATOM     31  C20 UNL     1     -17.934  -1.357 -16.576  0.00  0.00    +0.159 C 
ATOM     32  C21 UNL     1     -17.402  -2.392 -17.566  0.00  0.00    +0.105 C 
ENDBRANCH  26  27
ENDBRANCH  25  26
ENDBRANCH  10  25
TORSDOF 5
ENDMDL
