MODEL 1
REMARK VINA RESULT:    -5.911      0.000      0.000
REMARK INTER + INTRA:          -8.249
REMARK INTER:                  -7.639
REMARK INTRA:                  -0.611
REMARK UNBOUND:                -0.611
REMARK  Name = /tmp/tmpashzbdlc/7YCE_candidate_0048.pdb
REMARK  5 active torsions:
REMARK  status: ('A' for Active; 'I' for Inactive)
REMARK    1  A    between atoms: C5_5  and  N2_10
REMARK    2  A    between atoms: N2_10  and  C8_11
REMARK    3  A    between atoms: N3_21  and  C24_35
REMARK    4  A    between atoms: N4_24  and  C16_25
REMARK    5  A    between atoms: C20_29  and  N5_31
REMARK                            x       y       z     vdW  Elec       q    Type
REMARK                         _______ _______ _______ _____ _____    ______ ____
ROOT
ATOM      1  C1  UNL     1     -14.807  26.359 -15.147  0.00  0.00    +0.038 C 
ATOM      2  C2  UNL     1     -16.244  26.085 -15.435  0.00  0.00    +0.051 A 
ATOM      3  C3  UNL     1     -16.936  26.443 -16.538  0.00  0.00    +0.076 A 
ATOM      4  C4  UNL     1     -18.383  26.284 -16.538  0.00  0.00    +0.104 A 
ATOM      5  C5  UNL     1     -19.041  25.638 -15.542  0.00  0.00    +0.141 A 
ATOM      6  N1  UNL     1     -18.289  25.197 -14.459  0.00  0.00    -0.281 N 
ATOM      7  C6  UNL     1     -16.936  25.405 -14.306  0.00  0.00    +0.259 A 
ATOM      8  O1  UNL     1     -16.310  25.077 -13.300  0.00  0.00    -0.267 OA
ATOM      9  C7  UNL     1     -18.957  24.538 -13.362  0.00  0.00    +0.135 C 
ATOM     10  C14 UNL     1     -19.141  26.898 -17.660  0.00  0.00    +0.268 A 
ATOM     11  O2  UNL     1     -20.235  26.491 -18.040  0.00  0.00    -0.267 OA
ATOM     12  N3  UNL     1     -18.491  27.978 -18.223  0.00  0.00    -0.250 N 
ATOM     13  C15 UNL     1     -17.133  27.889 -18.519  0.00  0.00    +0.338 A 
ATOM     14  O3  UNL     1     -16.675  28.482 -19.502  0.00  0.00    -0.246 OA
ATOM     15  N4  UNL     1     -16.362  27.042 -17.679  0.00  0.00    -0.260 N 
ENDROOT
BRANCH  15  16
ATOM     16  C16 UNL     1     -15.019  26.725 -18.126  0.00  0.00    +0.069 A 
ATOM     17  C17 UNL     1     -14.687  25.482 -18.672  0.00  0.00    +0.018 A 
ATOM     18  C18 UNL     1     -13.379  25.178 -19.048  0.00  0.00    +0.003 A 
ATOM     19  C19 UNL     1     -12.369  26.117 -18.868  0.00  0.00    +0.017 A 
ATOM     20  C20 UNL     1     -12.668  27.355 -18.311  0.00  0.00    +0.075 A 
ATOM     21  C21 UNL     1     -13.980  27.644 -17.940  0.00  0.00    +0.034 A 
BRANCH  20  22
ATOM     22  N5  UNL     1     -11.620  28.269 -18.149  0.00  0.00    -0.179 NA
ATOM     23  C22 UNL     1     -10.712  28.282 -17.110  0.00  0.00    +0.246 C 
ATOM     24  O4  UNL     1     -10.661  27.520 -16.152  0.00  0.00    -0.273 OA
ATOM     25  C23 UNL     1      -9.735  29.402 -17.287  0.00  0.00    +0.097 C 
ENDBRANCH  20  22
ENDBRANCH  15  16
BRANCH  12  26
ATOM     26  C24 UNL     1     -19.281  28.827 -19.084  0.00  0.00    +0.093 C 
ATOM     27  C25 UNL     1     -20.369  29.711 -18.540  0.00  0.00    +0.025 C 
ATOM     28  C26 UNL     1     -19.116  30.322 -19.079  0.00  0.00    +0.025 C 
ENDBRANCH  12  26
BRANCH   5  29
ATOM     29  N2  UNL     1     -20.425  25.475 -15.517  0.00  0.00    -0.193 NA
BRANCH  29  30
ATOM     30  C8  UNL     1     -21.337  26.478 -15.107  0.00  0.00    +0.099 A 
ATOM     31  C9  UNL     1     -22.704  26.499 -15.420  0.00  0.00    +0.156 A 
ATOM     32  C10 UNL     1     -23.531  27.532 -14.985  0.00  0.00    +0.037 A 
ATOM     33  C11 UNL     1     -22.992  28.562 -14.226  0.00  0.00    +0.032 A 
ATOM     34  C12 UNL     1     -21.642  28.571 -13.900  0.00  0.00    +0.007 A 
ATOM     35  C13 UNL     1     -20.824  27.532 -14.341  0.00  0.00    +0.019 A 
ATOM     36  I1  UNL     1     -24.209  30.092 -13.576  0.00  0.00    -0.042 I 
ATOM     37  F1  UNL     1     -23.257  25.520 -16.152  0.00  0.00    -0.203 F 
ENDBRANCH  29  30
ENDBRANCH   5  29
TORSDOF 5
ENDMDL
