MODEL 1
REMARK VINA RESULT:    -6.599      0.000      0.000
REMARK INTER + INTRA:          -7.794
REMARK INTER:                  -7.756
REMARK INTRA:                  -0.038
REMARK UNBOUND:                -0.038
REMARK  Name = /tmp/tmpjle44v74/7YCE_candidate_0018.pdb
REMARK  3 active torsions:
REMARK  status: ('A' for Active; 'I' for Inactive)
REMARK    1  A    between atoms: C4_6  and  C5_7
REMARK    2  A    between atoms: C9_11  and  C12_14
REMARK    3  A    between atoms: C27_32  and  C29_34
REMARK                            x       y       z     vdW  Elec       q    Type
REMARK                         _______ _______ _______ _____ _____    ______ ____
ROOT
ATOM      1  C5  UNL     1     -12.726  25.734 -17.015  0.00  0.00    +0.149 C 
ATOM      2  C6  UNL     1     -12.524  25.150 -15.599  0.00  0.00    +0.002 A 
ATOM      3  C7  UNL     1     -13.526  24.405 -14.973  0.00  0.00    -0.002 A 
ATOM      4  C8  UNL     1     -13.414  23.938 -13.662  0.00  0.00    +0.031 A 
ATOM      5  C9  UNL     1     -12.205  24.106 -12.986  0.00  0.00    +0.068 A 
ATOM      6  C10 UNL     1     -11.155  24.771 -13.619  0.00  0.00    +0.010 A 
ATOM      7  C11 UNL     1     -11.318  25.294 -14.904  0.00  0.00    -0.002 A 
ATOM      8  C13 UNL     1     -14.643  23.335 -13.045  0.00  0.00    +0.233 C 
ATOM      9  O1  UNL     1     -15.180  24.196 -12.039  0.00  0.00    -0.471 OA
ATOM     10  C14 UNL     1     -16.134  25.064 -12.499  0.00  0.00    +0.139 A 
ATOM     11  C15 UNL     1     -16.790  25.827 -11.540  0.00  0.00    +0.037 A 
ATOM     12  C16 UNL     1     -17.723  26.785 -11.932  0.00  0.00    +0.003 A 
ATOM     13  C17 UNL     1     -17.973  27.004 -13.287  0.00  0.00    +0.000 A 
ATOM     14  C18 UNL     1     -17.311  26.269 -14.276  0.00  0.00    +0.003 A 
ATOM     15  C19 UNL     1     -16.419  25.278 -13.847  0.00  0.00    +0.037 A 
ATOM     16  C20 UNL     1     -17.550  26.532 -15.711  0.00  0.00    +0.004 A 
ATOM     17  C21 UNL     1     -16.541  26.465 -16.708  0.00  0.00    +0.017 A 
ATOM     18  C22 UNL     1     -15.190  26.212 -16.413  0.00  0.00    -0.001 A 
ATOM     19  C23 UNL     1     -14.196  26.044 -17.380  0.00  0.00    +0.003 A 
ATOM     20  C24 UNL     1     -14.584  26.239 -18.706  0.00  0.00    -0.001 A 
ATOM     21  C25 UNL     1     -15.907  26.549 -19.027  0.00  0.00    +0.019 A 
ATOM     22  C26 UNL     1     -16.897  26.662 -18.058  0.00  0.00    +0.082 A 
ATOM     23  N4  UNL     1     -18.152  26.945 -18.434  0.00  0.00    -0.235 NA
ATOM     24  C27 UNL     1     -19.097  27.043 -17.468  0.00  0.00    +0.149 A 
ATOM     25  C28 UNL     1     -18.848  26.846 -16.124  0.00  0.00    +0.030 A 
ATOM     26  N6  UNL     1     -12.247  24.701 -17.954  0.00  0.00    -0.119 NA
ENDROOT
BRANCH   1  32
ATOM     27  C1  UNL     1      -9.858  26.152 -18.389  0.00  0.00    +0.132 C 
ATOM     28  N1  UNL     1     -10.692  27.161 -17.777  0.00  0.00    -0.309 N 
ATOM     29  C2  UNL     1     -10.311  28.467 -17.684  0.00  0.00    +0.178 A 
ATOM     30  N2  UNL     1     -11.211  29.177 -17.047  0.00  0.00    -0.223 NA
ATOM     31  C3  UNL     1     -12.203  28.290 -16.724  0.00  0.00    +0.115 A 
ATOM     32  C4  UNL     1     -11.918  27.013 -17.177  0.00  0.00    +0.081 A 
ENDBRANCH   1  32
BRANCH   5  33
ATOM     33  C12 UNL     1     -12.002  23.614 -11.657  0.00  0.00    +0.100 C 
ATOM     34  N3  UNL     1     -11.865  23.214 -10.577  0.00  0.00    -0.191 NA
ENDBRANCH   5  33
BRANCH  24  35
ATOM     35  C29 UNL     1     -20.427  27.357 -17.902  0.00  0.00    +0.120 C 
ATOM     36  N5  UNL     1     -21.493  27.636 -18.272  0.00  0.00    -0.189 NA
ENDBRANCH  24  35
TORSDOF 3
ENDMDL
