MODEL 1
REMARK VINA RESULT:    -5.665      0.000      0.000
REMARK INTER + INTRA:          -7.251
REMARK INTER:                  -6.658
REMARK INTRA:                  -0.593
REMARK UNBOUND:                -0.593
REMARK  Name = /tmp/tmpttqsdrso/7YCE_candidate_0096.pdb
REMARK  3 active torsions:
REMARK  status: ('A' for Active; 'I' for Inactive)
REMARK    1  A    between atoms: C3_3  and  C22_28
REMARK    2  A    between atoms: C7_7  and  C8_8
REMARK    3  A    between atoms: C8_8  and  N1_10
REMARK                            x       y       z     vdW  Elec       q    Type
REMARK                         _______ _______ _______ _____ _____    ______ ____
ROOT
ATOM      1  N1  UNL     1     -14.003  25.508 -16.462  0.00  0.00    -0.216 NA
ATOM      2  C10 UNL     1     -15.035  26.251 -17.085  0.00  0.00    +0.170 A 
ATOM      3  N2  UNL     1     -14.934  26.632 -18.381  0.00  0.00    -0.132 NA
ATOM      4  N3  UNL     1     -15.928  27.355 -18.992  0.00  0.00    -0.151 NA
ATOM      5  C11 UNL     1     -17.030  27.693 -18.297  0.00  0.00    +0.082 A 
ATOM      6  C12 UNL     1     -17.185  27.325 -16.966  0.00  0.00    +0.037 A 
ATOM      7  C13 UNL     1     -18.302  27.648 -16.204  0.00  0.00    +0.102 A 
ATOM      8  N4  UNL     1     -18.479  27.302 -14.910  0.00  0.00    -0.229 NA
ATOM      9  C14 UNL     1     -17.505  26.586 -14.305  0.00  0.00    +0.132 A 
ATOM     10  C15 UNL     1     -16.345  26.233 -14.998  0.00  0.00    +0.037 A 
ATOM     11  C16 UNL     1     -16.172  26.590 -16.342  0.00  0.00    +0.040 A 
ATOM     12  N5  UNL     1     -17.637  26.264 -12.951  0.00  0.00    -0.288 N 
ATOM     13  C17 UNL     1     -17.032  24.984 -12.593  0.00  0.00    +0.124 C 
ATOM     14  C18 UNL     1     -17.232  24.708 -11.104  0.00  0.00    +0.164 C 
ATOM     15  O1  UNL     1     -18.619  24.737 -10.757  0.00  0.00    -0.350 OA
ATOM     16  C19 UNL     1     -19.118  26.056 -11.009  0.00  0.00    +0.164 C 
ATOM     17  C20 UNL     1     -19.015  26.412 -12.491  0.00  0.00    +0.124 C 
ATOM     18  C21 UNL     1     -18.066  28.477 -19.027  0.00  0.00    +0.054 C 
ENDROOT
BRANCH   1  19
ATOM     19  C8  UNL     1     -12.897  25.291 -17.376  0.00  0.00    +0.116 C 
ATOM     20  C9  UNL     1     -12.984  23.893 -17.947  0.00  0.00    +0.028 C 
BRANCH  19  27
ATOM     21  C1  UNL     1     -10.603  26.319 -18.863  0.00  0.00    +0.031 C 
ATOM     22  C2  UNL     1     -10.482  26.040 -17.396  0.00  0.00    -0.015 A 
ATOM     23  C3  UNL     1      -9.271  26.280 -16.727  0.00  0.00    +0.064 A 
ATOM     24  C4  UNL     1      -9.166  26.023 -15.359  0.00  0.00    +0.010 A 
ATOM     25  C5  UNL     1     -10.256  25.531 -14.650  0.00  0.00    +0.000 A 
ATOM     26  C6  UNL     1     -11.458  25.293 -15.309  0.00  0.00    -0.003 A 
ATOM     27  C7  UNL     1     -11.587  25.540 -16.682  0.00  0.00    -0.006 A 
BRANCH  23  28
ATOM     28  C22 UNL     1      -8.118  26.788 -17.407  0.00  0.00    +0.100 C 
ATOM     29  N6  UNL     1      -7.176  27.187 -17.955  0.00  0.00    -0.191 NA
ENDBRANCH  23  28
ENDBRANCH  19  27
ENDBRANCH   1  19
TORSDOF 3
ENDMDL
