MODEL 1
REMARK VINA RESULT:    -6.706      0.000      0.000
REMARK INTER + INTRA:         -15.877
REMARK INTER:                 -11.802
REMARK INTRA:                  -4.075
REMARK UNBOUND:                -4.075
REMARK  Name = /tmp/tmpi5lpganb/7YCE_candidate_0098.pdb
REMARK  13 active torsions:
REMARK  status: ('A' for Active; 'I' for Inactive)
REMARK    1  A    between atoms: C2_2  and  C3_3
REMARK    2  A    between atoms: C2_2  and  O7_83
REMARK    3  A    between atoms: C4_4  and  C15_18
REMARK    4  A    between atoms: C6_6  and  N2_9
REMARK    5  A    between atoms: N3_12  and  C12_15
REMARK    6  A    between atoms: C26_34  and  N8_54
REMARK    7  A    between atoms: N7_46  and  C36_47
REMARK    8  A    between atoms: C36_47  and  C37_48
REMARK    9  A    between atoms: C40_55  and  C41_57
REMARK   10  A    between atoms: C41_57  and  C42_58
REMARK   11  A    between atoms: C41_57  and  N9_63
REMARK   12  A    between atoms: C54_72  and  C55_74
REMARK   13  A    between atoms: C56_75  and  C58_78
REMARK                            x       y       z     vdW  Elec       q    Type
REMARK                         _______ _______ _______ _____ _____    ______ ____
ROOT
ATOM      1  C15 UNL     1     -12.570  16.100 -43.057  0.00  0.00    +0.057 A 
ATOM      2  C16 UNL     1     -13.788  16.534 -43.568  0.00  0.00    -0.005 A 
ATOM      3  C17 UNL     1     -14.011  17.112 -44.919  0.00  0.00    +0.031 C 
ATOM      4  C18 UNL     1     -15.006  16.397 -45.824  0.00  0.00    +0.045 C 
ATOM      5  C19 UNL     1     -15.107  14.902 -45.534  0.00  0.00    +0.209 C 
ATOM      6  O1  UNL     1     -16.456  14.482 -45.373  0.00  0.00    -0.448 OA
ATOM      7  C20 UNL     1     -16.559  13.125 -45.313  0.00  0.00    +0.335 C 
ATOM      8  O2  UNL     1     -15.615  12.353 -45.448  0.00  0.00    -0.248 OA
ATOM      9  C21 UNL     1     -17.983  12.677 -45.062  0.00  0.00    +0.192 C 
ATOM     10  C22 UNL     1     -19.024  13.438 -45.869  0.00  0.00    +0.033 C 
ATOM     11  C23 UNL     1     -19.493  14.727 -45.222  0.00  0.00    +0.025 C 
ATOM     12  C24 UNL     1     -19.300  14.747 -43.718  0.00  0.00    +0.113 C 
ATOM     13  N4  UNL     1     -19.266  13.404 -43.180  0.00  0.00    -0.205 N 
ATOM     14  N5  UNL     1     -18.231  12.570 -43.621  0.00  0.00    -0.118 NA
ATOM     15  C25 UNL     1     -20.294  12.872 -42.409  0.00  0.00    +0.260 C 
ATOM     16  O3  UNL     1     -20.381  11.685 -42.080  0.00  0.00    -0.272 OA
ATOM     17  C26 UNL     1     -21.305  13.918 -41.934  0.00  0.00    +0.175 C 
ATOM     18  C27 UNL     1     -20.904  14.354 -40.541  0.00  0.00    +0.062 C 
ATOM     19  C28 UNL     1     -20.506  15.810 -40.452  0.00  0.00    +0.137 C 
ATOM     20  C29 UNL     1     -19.008  15.919 -40.164  0.00  0.00    +0.121 C 
ATOM     21  N6  UNL     1     -18.290  16.353 -41.352  0.00  0.00    -0.303 N 
ATOM     22  C30 UNL     1     -18.776  17.578 -41.976  0.00  0.00    +0.123 C 
ATOM     23  C31 UNL     1     -20.263  17.790 -41.686  0.00  0.00    +0.163 C 
ATOM     24  O4  UNL     1     -20.964  16.544 -41.590  0.00  0.00    -0.353 OA
ATOM     25  C32 UNL     1     -16.916  16.149 -41.376  0.00  0.00    +0.048 A 
ATOM     26  C33 UNL     1     -16.157  16.575 -42.475  0.00  0.00    +0.016 A 
ATOM     27  C34 UNL     1     -14.777  16.319 -42.560  0.00  0.00    +0.014 A 
ATOM     28  C35 UNL     1     -14.164  15.650 -41.506  0.00  0.00    +0.060 A 
ATOM     29  N7  UNL     1     -12.828  15.567 -41.812  0.00  0.00    -0.320 N 
ATOM     30  C38 UNL     1     -14.877  15.193 -40.392  0.00  0.00    +0.018 A 
ATOM     31  C39 UNL     1     -16.252  15.441 -40.370  0.00  0.00    +0.016 A 
ATOM     32  C61 UNL     1     -14.494  16.545 -47.242  0.00  0.00    +0.004 C 
ATOM     33  C62 UNL     1     -16.333  17.125 -45.747  0.00  0.00    +0.004 C 
ENDROOT
BRANCH   1  35
ATOM     34  C3  UNL     1     -10.394  17.284 -43.446  0.00  0.00    +0.087 A 
ATOM     35  C4  UNL     1     -11.232  16.185 -43.645  0.00  0.00    +0.033 A 
ATOM     36  C5  UNL     1     -10.747  15.135 -44.428  0.00  0.00    +0.019 A 
ATOM     37  C6  UNL     1      -9.469  15.157 -44.989  0.00  0.00    +0.067 A 
ATOM     38  C7  UNL     1      -8.740  16.319 -44.740  0.00  0.00    +0.113 A 
ATOM     39  N1  UNL     1      -9.149  17.366 -43.988  0.00  0.00    -0.244 NA
BRANCH  37  40
ATOM     40  N2  UNL     1      -8.994  14.117 -45.792  0.00  0.00    -0.303 N 
ATOM     41  C8  UNL     1      -9.272  12.759 -45.330  0.00  0.00    +0.108 C 
ATOM     42  C9  UNL     1      -8.078  12.169 -44.581  0.00  0.00    +0.094 C 
ATOM     43  N3  UNL     1      -6.777  12.252 -45.247  0.00  0.00    -0.271 NA
ATOM     44  C10 UNL     1      -6.856  13.049 -46.471  0.00  0.00    +0.094 C 
ATOM     45  C11 UNL     1      -7.665  14.342 -46.358  0.00  0.00    +0.108 C 
BRANCH  43  46
ATOM     46  C12 UNL     1      -5.725  12.783 -44.379  0.00  0.00    +0.058 C 
ATOM     47  C13 UNL     1      -5.837  12.844 -42.886  0.00  0.00    +0.017 C 
ATOM     48  C14 UNL     1      -4.873  11.889 -43.532  0.00  0.00    +0.017 C 
ENDBRANCH  43  46
ENDBRANCH  37  40
BRANCH  34  50
ATOM     49  C1  UNL     1     -10.864  19.760 -43.259  0.00  0.00    +0.039 C 
ATOM     50  C2  UNL     1     -10.841  18.421 -42.560  0.00  0.00    +0.155 C 
BRANCH  50  51
ATOM     51  O7  UNL     1     -10.195  18.474 -41.296  0.00  0.00    -0.348 OA
ATOM     52  C63 UNL     1     -11.135  18.312 -40.240  0.00  0.00    +0.175 C 
ENDBRANCH  50  51
ENDBRANCH  34  50
ENDBRANCH   1  35
BRANCH  17  53
ATOM     53  N8  UNL     1     -22.625  13.338 -41.873  0.00  0.00    -0.197 NA
ATOM     54  C40 UNL     1     -23.335  13.105 -43.031  0.00  0.00    +0.256 C 
ATOM     55  O5  UNL     1     -22.913  13.386 -44.154  0.00  0.00    -0.272 OA
BRANCH  54  56
ATOM     56  C41 UNL     1     -24.705  12.467 -42.802  0.00  0.00    +0.136 C 
BRANCH  56  57
ATOM     57  N9  UNL     1     -24.696  11.127 -42.206  0.00  0.00    -0.266 NA
ATOM     58  C47 UNL     1     -24.674  11.168 -40.740  0.00  0.00    +0.073 C 
ATOM     59  C48 UNL     1     -23.910   9.929 -40.302  0.00  0.00    +0.020 C 
ATOM     60  C49 UNL     1     -23.401   9.305 -41.581  0.00  0.00    +0.036 C 
ATOM     61  C50 UNL     1     -23.469  10.428 -42.586  0.00  0.00    +0.074 C 
ATOM     62  C51 UNL     1     -22.007   8.739 -41.442  0.00  0.00    +0.025 C 
ATOM     63  C52 UNL     1     -22.200   7.257 -41.151  0.00  0.00    +0.094 C 
ATOM     64  N10 UNL     1     -23.528   6.962 -41.635  0.00  0.00    -0.278 N 
ATOM     65  C53 UNL     1     -24.279   8.140 -42.000  0.00  0.00    +0.095 C 
ATOM     66  C54 UNL     1     -23.998   5.673 -41.707  0.00  0.00    +0.241 C 
ATOM     67  O6  UNL     1     -23.305   4.691 -41.456  0.00  0.00    -0.273 OA
BRANCH  66  68
ATOM     68  C55 UNL     1     -25.400   5.506 -42.175  0.00  0.00    +0.150 C 
ATOM     69  C56 UNL     1     -25.706   5.124 -43.595  0.00  0.00    +0.081 C 
ATOM     70  N11 UNL     1     -25.799   4.136 -42.532  0.00  0.00    -0.264 NA
ATOM     71  C57 UNL     1     -27.197   3.947 -42.178  0.00  0.00    +0.090 C 
BRANCH  69  72
ATOM     72  C58 UNL     1     -24.716   4.947 -44.706  0.00  0.00    +0.016 C 
ATOM     73  C59 UNL     1     -23.887   3.712 -44.906  0.00  0.00    +0.001 C 
ATOM     74  C60 UNL     1     -24.948   4.078 -45.904  0.00  0.00    +0.001 C 
ENDBRANCH  69  72
ENDBRANCH  66  68
ENDBRANCH  56  57
BRANCH  56  75
ATOM     75  C42 UNL     1     -25.791  13.364 -42.254  0.00  0.00    +0.024 C 
ATOM     76  C43 UNL     1     -27.183  12.961 -42.696  0.00  0.00    +0.002 C 
ATOM     77  C44 UNL     1     -28.013  14.237 -42.663  0.00  0.00    +0.000 C 
ATOM     78  C45 UNL     1     -27.063  15.366 -42.317  0.00  0.00    +0.000 C 
ATOM     79  C46 UNL     1     -25.675  14.831 -42.601  0.00  0.00    +0.002 C 
ENDBRANCH  56  75
ENDBRANCH  54  56
ENDBRANCH  17  53
BRANCH  29  80
ATOM     80  C36 UNL     1     -11.867  14.894 -40.963  0.00  0.00    +0.210 C 
BRANCH  80  81
ATOM     81  C37 UNL     1     -11.824  13.398 -41.148  0.00  0.00    +0.418 C 
ATOM     82  F1  UNL     1     -12.599  12.811 -40.205  0.00  0.00    -0.168 F 
ATOM     83  F2  UNL     1     -12.311  13.023 -42.348  0.00  0.00    -0.168 F 
ATOM     84  F3  UNL     1     -10.580  12.893 -41.009  0.00  0.00    -0.168 F 
ENDBRANCH  80  81
ENDBRANCH  29  80
TORSDOF 13
ENDMDL
