MODEL 1
REMARK VINA RESULT:    -5.893      0.000      0.000
REMARK INTER + INTRA:         -14.614
REMARK INTER:                 -10.371
REMARK INTRA:                  -4.243
REMARK UNBOUND:                -4.243
REMARK  Name = /tmp/tmppurbfza3/7YCE_candidate_0066.pdb
REMARK  13 active torsions:
REMARK  status: ('A' for Active; 'I' for Inactive)
REMARK    1  A    between atoms: C10_11  and  O11_52
REMARK    2  A    between atoms: C12_13  and  O8_41
REMARK    3  A    between atoms: C18_19  and  O2_20
REMARK    4  A    between atoms: O2_20  and  C19_21
REMARK    5  A    between atoms: C19_21  and  C20_23
REMARK    6  A    between atoms: C20_23  and  C21_24
REMARK    7  A    between atoms: C21_24  and  C22_25
REMARK    8  A    between atoms: C21_24  and  N1_31
REMARK    9  A    between atoms: C28_32  and  O5_34
REMARK   10  A    between atoms: O5_34  and  C29_35
REMARK   11  A    between atoms: O8_41  and  C33_42
REMARK   12  A    between atoms: C33_42  and  C34_44
REMARK   13  A    between atoms: O11_52  and  C41_53
REMARK                            x       y       z     vdW  Elec       q    Type
REMARK                         _______ _______ _______ _____ _____    ______ ____
ROOT
ATOM      1  C1  UNL     1     -17.240   8.610 -46.984  0.00  0.00    +0.029 C 
ATOM      2  C2  UNL     1     -18.501   9.002 -46.291  0.00  0.00    -0.010 C 
ATOM      3  C3  UNL     1     -19.686   8.337 -46.423  0.00  0.00    -0.010 C 
ATOM      4  C4  UNL     1     -19.886   6.904 -46.907  0.00  0.00    +0.227 C 
ATOM      5  C5  UNL     1     -20.997   6.068 -46.187  0.00  0.00    +0.186 C 
ATOM      6  O1  UNL     1     -22.052   5.855 -46.808  0.00  0.00    -0.293 OA
ATOM      7  C6  UNL     1     -20.900   5.605 -44.700  0.00  0.00    +0.089 C 
ATOM      8  C7  UNL     1     -21.647   4.245 -44.717  0.00  0.00    +0.161 C 
ATOM      9  C8  UNL     1     -21.660   3.571 -43.367  0.00  0.00    +0.067 C 
ATOM     10  C9  UNL     1     -22.313   4.455 -42.353  0.00  0.00    +0.157 C 
ATOM     11  C10 UNL     1     -22.554   5.945 -42.680  0.00  0.00    +0.191 C 
ATOM     12  C11 UNL     1     -21.636   6.594 -43.715  0.00  0.00    +0.093 C 
ATOM     13  C12 UNL     1     -21.156   8.003 -43.221  0.00  0.00    +0.201 C 
ATOM     14  C13 UNL     1     -20.172   8.670 -44.148  0.00  0.00    +0.170 C 
ATOM     15  C14 UNL     1     -20.787   8.893 -45.569  0.00  0.00    +0.047 C 
ATOM     16  C15 UNL     1     -22.203   8.410 -45.830  0.00  0.00    +0.007 C 
ATOM     17  C16 UNL     1     -21.034  10.374 -45.893  0.00  0.00    +0.007 C 
ATOM     18  C17 UNL     1     -19.335   9.926 -43.930  0.00  0.00    +0.082 C 
ATOM     19  C18 UNL     1     -18.296   9.998 -45.119  0.00  0.00    +0.189 C 
ATOM     20  O7  UNL     1     -19.105   7.701 -44.031  0.00  0.00    -0.222 OA
ATOM     21  C40 UNL     1     -22.031   6.121 -41.232  0.00  0.00    +0.185 C 
ATOM     22  O10 UNL     1     -21.385   4.818 -41.298  0.00  0.00    -0.349 OA
ATOM     23  O13 UNL     1     -20.998   3.322 -45.592  0.00  0.00    -0.223 OA
ATOM     24  C43 UNL     1     -19.477   5.268 -44.290  0.00  0.00    +0.010 C 
ATOM     25  O14 UNL     1     -18.685   6.169 -46.968  0.00  0.00    -0.211 OA
ENDROOT
BRANCH  19  26
ATOM     26  O2  UNL     1     -18.210  11.321 -45.631  0.00  0.00    -0.446 OA
BRANCH  26  27
ATOM     27  C19 UNL     1     -17.143  11.991 -45.117  0.00  0.00    +0.350 C 
ATOM     28  O3  UNL     1     -16.008  11.541 -45.035  0.00  0.00    -0.247 OA
BRANCH  27  29
ATOM     29  C20 UNL     1     -17.526  13.378 -44.664  0.00  0.00    +0.274 C 
ATOM     30  O6  UNL     1     -16.846  14.306 -45.497  0.00  0.00    -0.209 OA
BRANCH  29  31
ATOM     31  C21 UNL     1     -17.115  13.544 -43.210  0.00  0.00    +0.162 C 
BRANCH  31  32
ATOM     32  C22 UNL     1     -18.301  13.694 -42.298  0.00  0.00    +0.001 A 
ATOM     33  C23 UNL     1     -19.585  13.651 -42.853  0.00  0.00    -0.003 A 
ATOM     34  C24 UNL     1     -20.709  13.780 -42.035  0.00  0.00    -0.000 A 
ATOM     35  C25 UNL     1     -20.555  13.948 -40.657  0.00  0.00    -0.000 A 
ATOM     36  C26 UNL     1     -19.277  13.995 -40.097  0.00  0.00    -0.000 A 
ATOM     37  C27 UNL     1     -18.154  13.869 -40.916  0.00  0.00    -0.003 A 
ENDBRANCH  31  32
BRANCH  31  38
ATOM     38  N1  UNL     1     -16.181  14.627 -43.029  0.00  0.00    -0.163 NA
ATOM     39  C28 UNL     1     -14.846  14.355 -42.879  0.00  0.00    +0.421 C 
ATOM     40  O4  UNL     1     -14.358  13.232 -42.916  0.00  0.00    -0.225 OA
BRANCH  39  41
ATOM     41  O5  UNL     1     -14.154  15.505 -42.684  0.00  0.00    -0.441 OA
BRANCH  41  42
ATOM     42  C29 UNL     1     -13.676  15.787 -41.360  0.00  0.00    +0.138 C 
ATOM     43  C30 UNL     1     -14.810  16.125 -40.420  0.00  0.00    +0.044 C 
ATOM     44  C31 UNL     1     -12.781  17.000 -41.474  0.00  0.00    +0.044 C 
ATOM     45  C32 UNL     1     -12.849  14.639 -40.830  0.00  0.00    +0.044 C 
ENDBRANCH  41  42
ENDBRANCH  39  41
ENDBRANCH  31  38
ENDBRANCH  29  31
ENDBRANCH  27  29
ENDBRANCH  26  27
ENDBRANCH  19  26
BRANCH  13  46
ATOM     46  O8  UNL     1     -22.283   8.842 -42.962  0.00  0.00    -0.446 OA
BRANCH  46  47
ATOM     47  C33 UNL     1     -22.099   9.607 -41.855  0.00  0.00    +0.341 C 
ATOM     48  O9  UNL     1     -21.358   9.329 -40.929  0.00  0.00    -0.245 OA
BRANCH  47  49
ATOM     49  C34 UNL     1     -22.927  10.822 -41.928  0.00  0.00    +0.076 A 
ATOM     50  C35 UNL     1     -23.247  11.329 -43.186  0.00  0.00    +0.006 A 
ATOM     51  C36 UNL     1     -24.043  12.467 -43.289  0.00  0.00    +0.000 A 
ATOM     52  C37 UNL     1     -24.512  13.101 -42.139  0.00  0.00    +0.000 A 
ATOM     53  C38 UNL     1     -24.187  12.594 -40.881  0.00  0.00    +0.000 A 
ATOM     54  C39 UNL     1     -23.403  11.449 -40.774  0.00  0.00    +0.006 A 
ENDBRANCH  47  49
ENDBRANCH  46  47
ENDBRANCH  13  46
BRANCH  11  55
ATOM     55  O11 UNL     1     -23.914   6.345 -42.991  0.00  0.00    -0.451 OA
BRANCH  55  56
ATOM     56  C41 UNL     1     -24.863   6.134 -42.041  0.00  0.00    +0.317 C 
ATOM     57  O12 UNL     1     -25.423   5.077 -41.808  0.00  0.00    -0.250 OA
ATOM     58  C42 UNL     1     -25.128   7.408 -41.306  0.00  0.00    +0.121 C 
ENDBRANCH  55  56
ENDBRANCH  11  55
TORSDOF 13
ENDMDL
