MODEL 1
REMARK VINA RESULT:    -5.936      0.000      0.000
REMARK INTER + INTRA:          -9.351
REMARK INTER:                  -8.019
REMARK INTRA:                  -1.333
REMARK UNBOUND:                -1.333
REMARK  Name = /tmp/tmpjp_kr5mb/7YCE_candidate_0073.pdb
REMARK  6 active torsions:
REMARK  status: ('A' for Active; 'I' for Inactive)
REMARK    1  A    between atoms: N2_5  and  C6_8
REMARK    2  A    between atoms: N3_11  and  C11_14
REMARK    3  A    between atoms: C13_16  and  O2_39
REMARK    4  A    between atoms: C14_17  and  N4_20
REMARK    5  A    between atoms: N7_27  and  C21_28
REMARK    6  A    between atoms: C26_33  and  P1_34
REMARK                            x       y       z     vdW  Elec       q    Type
REMARK                         _______ _______ _______ _____ _____    ______ ____
ROOT
ATOM      1  C11 UNL     1     -13.191  26.549 -17.743  0.00  0.00    +0.051 A 
ATOM      2  C12 UNL     1     -12.575  27.785 -17.964  0.00  0.00    +0.053 A 
ATOM      3  C13 UNL     1     -11.194  27.912 -18.165  0.00  0.00    +0.155 A 
ATOM      4  C14 UNL     1     -10.373  26.773 -18.143  0.00  0.00    +0.107 A 
ATOM      5  C15 UNL     1     -10.978  25.538 -17.901  0.00  0.00    +0.021 A 
ATOM      6  C16 UNL     1     -12.354  25.431 -17.698  0.00  0.00    +0.016 A 
ENDROOT
BRANCH   4   7
ATOM      7  N4  UNL     1      -8.981  26.910 -18.345  0.00  0.00    -0.175 NA
ATOM      8  C17 UNL     1      -7.973  27.177 -17.396  0.00  0.00    +0.242 A 
ATOM      9  N5  UNL     1      -8.245  27.226 -16.082  0.00  0.00    -0.210 NA
ATOM     10  C18 UNL     1      -7.218  27.473 -15.251  0.00  0.00    +0.116 A 
ATOM     11  C19 UNL     1      -5.923  27.672 -15.656  0.00  0.00    +0.110 A 
ATOM     12  C20 UNL     1      -5.706  27.607 -17.019  0.00  0.00    +0.167 A 
ATOM     13  N6  UNL     1      -6.726  27.358 -17.875  0.00  0.00    -0.194 NA
ATOM     14  N7  UNL     1      -4.381  27.808 -17.497  0.00  0.00    -0.193 NA
ATOM     15 CL1  UNL     1      -4.701  27.954 -14.486  0.00  0.00    -0.078 Cl
BRANCH  14  16
ATOM     16  C21 UNL     1      -3.899  27.762 -18.824  0.00  0.00    +0.075 A 
ATOM     17  C22 UNL     1      -3.453  26.577 -19.418  0.00  0.00    +0.017 A 
ATOM     18  C23 UNL     1      -2.978  26.550 -20.726  0.00  0.00    +0.001 A 
ATOM     19  C24 UNL     1      -2.944  27.721 -21.468  0.00  0.00    +0.000 A 
ATOM     20  C25 UNL     1      -3.381  28.911 -20.895  0.00  0.00    +0.004 A 
ATOM     21  C26 UNL     1      -3.856  28.948 -19.578  0.00  0.00    +0.045 A 
BRANCH  21  22
ATOM     22  P1  UNL     1      -4.417  30.485 -18.926  0.00  0.00    +0.137 P 
ATOM     23  O1  UNL     1      -4.035  30.787 -17.500  0.00  0.00    -0.315 OA
ATOM     24  C27 UNL     1      -6.206  30.592 -19.110  0.00  0.00    +0.072 C 
ATOM     25  C28 UNL     1      -3.892  31.814 -20.018  0.00  0.00    +0.072 C 
ENDBRANCH  21  22
ENDBRANCH  14  16
ENDBRANCH   4   7
BRANCH   1  29
ATOM     26  C6  UNL     1     -17.341  26.758 -16.909  0.00  0.00    +0.061 C 
ATOM     27  C7  UNL     1     -16.835  26.556 -18.329  0.00  0.00    +0.037 C 
ATOM     28  C8  UNL     1     -15.418  27.050 -18.516  0.00  0.00    +0.092 C 
ATOM     29  N3  UNL     1     -14.563  26.446 -17.504  0.00  0.00    -0.307 N 
ATOM     30  C9  UNL     1     -14.972  26.601 -16.117  0.00  0.00    +0.092 C 
ATOM     31  C10 UNL     1     -16.277  27.357 -16.005  0.00  0.00    +0.037 C 
BRANCH  26  36
ATOM     32  C1  UNL     1     -20.988  24.750 -14.865  0.00  0.00    +0.090 C 
ATOM     33  N1  UNL     1     -20.676  26.001 -15.529  0.00  0.00    -0.269 NA
ATOM     34  C2  UNL     1     -19.566  26.613 -14.805  0.00  0.00    +0.090 C 
ATOM     35  C3  UNL     1     -19.002  27.837 -15.533  0.00  0.00    +0.090 C 
ATOM     36  N2  UNL     1     -18.550  27.582 -16.907  0.00  0.00    -0.272 NA
ATOM     37  C4  UNL     1     -19.641  26.894 -17.608  0.00  0.00    +0.090 C 
ATOM     38  C5  UNL     1     -20.211  25.675 -16.875  0.00  0.00    +0.090 C 
ENDBRANCH  26  36
ENDBRANCH   1  29
BRANCH   3  39
ATOM     39  O2  UNL     1     -10.590  29.124 -18.398  0.00  0.00    -0.470 OA
ATOM     40  C29 UNL     1     -10.589  29.942 -17.233  0.00  0.00    +0.253 C 
ENDBRANCH   3  39
TORSDOF 6
ENDMDL
