MODEL 1
REMARK VINA RESULT:    -6.093      0.000      0.000
REMARK INTER + INTRA:         -10.473
REMARK INTER:                  -9.299
REMARK INTRA:                  -1.174
REMARK UNBOUND:                -1.174
REMARK  Name = /tmp/tmp69033aqo/7YCE_candidate_0017.pdb
REMARK  9 active torsions:
REMARK  status: ('A' for Active; 'I' for Inactive)
REMARK    1  A    between atoms: C3_3  and  C15_20
REMARK    2  A    between atoms: C6_6  and  C7_7
REMARK    3  A    between atoms: C7_7  and  C8_8
REMARK    4  A    between atoms: C8_8  and  C9_9
REMARK    5  A    between atoms: N5_22  and  C16_23
REMARK    6  A    between atoms: C16_23  and  C17_24
REMARK    7  A    between atoms: C16_23  and  C20_29
REMARK    8  A    between atoms: C17_24  and  C18_25
REMARK    9  A    between atoms: C18_25  and  C19_26
REMARK                            x       y       z     vdW  Elec       q    Type
REMARK                         _______ _______ _______ _____ _____    ______ ____
ROOT
ATOM      1  C1  UNL     1     -19.567  15.789 -40.657  0.00  0.00    -0.004 A 
ATOM      2  C2  UNL     1     -18.197  16.025 -40.739  0.00  0.00    +0.004 A 
ATOM      3  C3  UNL     1     -17.315  14.952 -40.874  0.00  0.00    +0.055 A 
ATOM      4  C4  UNL     1     -17.801  13.646 -40.928  0.00  0.00    +0.004 A 
ATOM      5  C5  UNL     1     -19.172  13.412 -40.845  0.00  0.00    -0.004 A 
ATOM      6  C6  UNL     1     -20.055  14.482 -40.702  0.00  0.00    -0.022 A 
ENDROOT
BRANCH   3   7
ATOM      7  C15 UNL     1     -15.868  15.230 -40.956  0.00  0.00    +0.265 C 
ATOM      8  O2  UNL     1     -15.365  16.202 -40.401  0.00  0.00    -0.268 OA
ATOM      9  N5  UNL     1     -15.135  14.328 -41.694  0.00  0.00    -0.192 NA
BRANCH   9  10
ATOM     10  C16 UNL     1     -13.708  14.511 -41.798  0.00  0.00    +0.199 C 
BRANCH  10  11
ATOM     11  C20 UNL     1     -13.345  14.886 -43.217  0.00  0.00    +0.384 C 
ATOM     12  O5  UNL     1     -12.760  15.899 -43.572  0.00  0.00    -0.244 OA
ATOM     13  O6  UNL     1     -13.823  13.945 -44.071  0.00  0.00    -0.244 OA
ENDBRANCH  10  11
BRANCH  10  14
ATOM     14  C17 UNL     1     -13.001  13.215 -41.466  0.00  0.00    +0.045 C 
BRANCH  14  15
ATOM     15  C18 UNL     1     -11.536  13.467 -41.196  0.00  0.00    +0.116 C 
BRANCH  15  16
ATOM     16  C19 UNL     1     -10.716  12.586 -42.083  0.00  0.00    +0.365 C 
ATOM     17  O3  UNL     1     -11.133  12.040 -43.093  0.00  0.00    -0.246 OA
ATOM     18  O4  UNL     1      -9.453  12.480 -41.610  0.00  0.00    -0.246 OA
ENDBRANCH  15  16
ENDBRANCH  14  15
ENDBRANCH  10  14
ENDBRANCH   9  10
ENDBRANCH   3   7
BRANCH   6  19
ATOM     19  C7  UNL     1     -21.523  14.233 -40.633  0.00  0.00    +0.031 C 
BRANCH  19  20
ATOM     20  C8  UNL     1     -21.959  13.335 -41.771  0.00  0.00    +0.033 C 
BRANCH  20  21
ATOM     21  C9  UNL     1     -22.782  12.202 -41.296  0.00  0.00    +0.005 A 
ATOM     22  C10 UNL     1     -24.079  12.268 -40.820  0.00  0.00    +0.097 A 
ATOM     23  N1  UNL     1     -24.490  11.003 -40.499  0.00  0.00    -0.225 NA
ATOM     24  C11 UNL     1     -23.485  10.116 -40.761  0.00  0.00    +0.170 A 
ATOM     25  C12 UNL     1     -22.417  10.831 -41.255  0.00  0.00    +0.091 A 
ATOM     26  C13 UNL     1     -21.217  10.108 -41.611  0.00  0.00    +0.284 A 
ATOM     27  O1  UNL     1     -20.209  10.653 -42.045  0.00  0.00    -0.265 OA
ATOM     28  N2  UNL     1     -21.344   8.742 -41.394  0.00  0.00    -0.172 NA
ATOM     29  C14 UNL     1     -22.484   8.118 -40.885  0.00  0.00    +0.261 A 
ATOM     30  N3  UNL     1     -23.569   8.779 -40.557  0.00  0.00    -0.192 NA
ATOM     31  N4  UNL     1     -22.392   6.748 -40.747  0.00  0.00    -0.086 NA
ENDBRANCH  20  21
ENDBRANCH  19  20
ENDBRANCH   6  19
TORSDOF 9
ENDMDL
