MODEL 1
REMARK VINA RESULT:    -6.459      0.000      0.000
REMARK INTER + INTRA:          -9.828
REMARK INTER:                  -7.969
REMARK INTRA:                  -1.859
REMARK UNBOUND:                -1.859
REMARK  Name = /tmp/tmpkfo7698h/7YCE_candidate_0065.pdb
REMARK  4 active torsions:
REMARK  status: ('A' for Active; 'I' for Inactive)
REMARK    1  A    between atoms: C3_3  and  N2_11
REMARK    2  A    between atoms: C4_4  and  C7_8
REMARK    3  A    between atoms: C11_14  and  C27_37
REMARK    4  A    between atoms: C23_31  and  C24_33
REMARK                            x       y       z     vdW  Elec       q    Type
REMARK                         _______ _______ _______ _____ _____    ______ ____
ROOT
ATOM      1  N2  UNL     1     -13.559  25.858 -15.774  0.00  0.00    -0.257 N 
ATOM      2  C10 UNL     1     -14.945  26.136 -15.760  0.00  0.00    +0.151 A 
ATOM      3  N3  UNL     1     -15.483  26.851 -16.788  0.00  0.00    -0.227 NA
ATOM      4  C11 UNL     1     -16.805  27.161 -16.782  0.00  0.00    +0.099 A 
ATOM      5  C12 UNL     1     -17.629  26.765 -15.744  0.00  0.00    +0.076 A 
ATOM      6  C13 UNL     1     -17.060  26.037 -14.709  0.00  0.00    +0.017 A 
ATOM      7  C14 UNL     1     -15.703  25.708 -14.677  0.00  0.00    +0.050 A 
ATOM      8  C15 UNL     1     -15.094  24.984 -13.541  0.00  0.00    +0.070 A 
ATOM      9  C16 UNL     1     -13.757  24.745 -13.564  0.00  0.00    +0.125 A 
ATOM     10  C17 UNL     1     -12.907  25.223 -14.728  0.00  0.00    +0.281 A 
ATOM     11  O1  UNL     1     -11.689  25.032 -14.731  0.00  0.00    -0.265 OA
ATOM     12  N4  UNL     1     -13.150  24.044 -12.515  0.00  0.00    -0.251 N 
ATOM     13  C18 UNL     1     -13.825  23.612 -11.381  0.00  0.00    +0.249 C 
ATOM     14  O2  UNL     1     -13.303  22.901 -10.520  0.00  0.00    -0.273 OA
ATOM     15  C19 UNL     1     -15.249  24.102 -11.210  0.00  0.00    +0.170 C 
ATOM     16  N5  UNL     1     -15.884  24.532 -12.471  0.00  0.00    -0.297 N 
ATOM     17  C20 UNL     1     -17.289  24.823 -12.230  0.00  0.00    +0.113 C 
ATOM     18  C21 UNL     1     -17.486  25.937 -11.177  0.00  0.00    +0.115 C 
ATOM     19  N6  UNL     1     -16.452  26.038 -10.142  0.00  0.00    -0.272 N 
ATOM     20  C22 UNL     1     -15.210  25.280 -10.244  0.00  0.00    +0.123 C 
ATOM     21  C23 UNL     1     -16.499  27.000  -9.147  0.00  0.00    +0.249 C 
ATOM     22  O3  UNL     1     -15.592  27.175  -8.338  0.00  0.00    -0.270 OA
ATOM     23  C26 UNL     1     -11.763  23.663 -12.579  0.00  0.00    +0.120 C 
ATOM     24 CL1  UNL     1     -19.294  27.166 -15.617  0.00  0.00    -0.081 Cl
ENDROOT
BRANCH   4  25
ATOM     25  C27 UNL     1     -17.245  27.944 -17.939  0.00  0.00    +0.085 A 
ATOM     26  C28 UNL     1     -17.116  29.341 -17.981  0.00  0.00    +0.199 A 
ATOM     27  C29 UNL     1     -17.529  30.083 -19.085  0.00  0.00    +0.042 A 
ATOM     28  C30 UNL     1     -18.088  29.434 -20.184  0.00  0.00    +0.006 A 
ATOM     29  C31 UNL     1     -18.219  28.048 -20.180  0.00  0.00    +0.030 A 
ATOM     30  C32 UNL     1     -17.796  27.320 -19.070  0.00  0.00    +0.145 A 
ATOM     31  F1  UNL     1     -17.916  25.984 -19.104  0.00  0.00    -0.204 F 
ATOM     32  O4  UNL     1     -16.583  30.030 -16.919  0.00  0.00    -0.286 OA
ENDBRANCH   4  25
BRANCH   1  35
ATOM     33  C1  UNL     1     -13.090  24.191 -18.155  0.00  0.00    +0.033 C 
ATOM     34  C2  UNL     1     -12.600  25.594 -18.028  0.00  0.00    -0.003 A 
ATOM     35  C3  UNL     1     -12.808  26.367 -16.876  0.00  0.00    +0.078 A 
ATOM     36  C4  UNL     1     -12.242  27.655 -16.842  0.00  0.00    +0.074 A 
ATOM     37  N1  UNL     1     -11.527  28.181 -17.875  0.00  0.00    -0.247 NA
ATOM     38  C5  UNL     1     -11.350  27.402 -18.961  0.00  0.00    +0.098 A 
ATOM     39  C6  UNL     1     -11.867  26.120 -19.088  0.00  0.00    +0.018 A 
BRANCH  36  40
ATOM     40  C7  UNL     1     -12.476  28.555 -15.664  0.00  0.00    +0.042 C 
ATOM     41  C8  UNL     1     -11.178  28.948 -15.000  0.00  0.00    +0.006 C 
ATOM     42  C9  UNL     1     -13.233  29.792 -16.089  0.00  0.00    +0.006 C 
ENDBRANCH  36  40
ENDBRANCH   1  35
BRANCH  21  43
ATOM     43  C24 UNL     1     -17.736  27.815  -9.151  0.00  0.00    +0.058 C 
ATOM     44  C25 UNL     1     -17.615  29.145  -9.157  0.00  0.00    +0.005 C 
ENDBRANCH  21  43
TORSDOF 4
ENDMDL
