MODEL 1
REMARK VINA RESULT:    -6.597      0.000      0.000
REMARK INTER + INTRA:          -7.635
REMARK INTER:                  -7.368
REMARK INTRA:                  -0.267
REMARK UNBOUND:                -0.267
REMARK  Name = /tmp/tmp_u1dzpov/7YCE_candidate_0054.pdb
REMARK  2 active torsions:
REMARK  status: ('A' for Active; 'I' for Inactive)
REMARK    1  A    between atoms: C6_6  and  C7_7
REMARK    2  A    between atoms: C8_11  and  C9_13
REMARK                            x       y       z     vdW  Elec       q    Type
REMARK                         _______ _______ _______ _____ _____    ______ ____
ROOT
ATOM      1  C1  UNL     1     -19.201  -1.726 -16.495  0.00  0.00    +0.008 A 
ATOM      2  C2  UNL     1     -18.004  -1.001 -16.474  0.00  0.00    +0.023 A 
ATOM      3  C3  UNL     1     -16.821  -1.708 -16.221  0.00  0.00    +0.119 A 
ATOM      4  C4  UNL     1     -16.886  -3.074 -16.004  0.00  0.00    +0.165 A 
ATOM      5  C5  UNL     1     -18.052  -3.833 -16.015  0.00  0.00    +0.046 A 
ATOM      6  C6  UNL     1     -19.223  -3.108 -16.270  0.00  0.00    +0.083 A 
ATOM      7  O3  UNL     1     -15.616  -3.522 -15.782  0.00  0.00    -0.435 OA
ATOM      8  C8  UNL     1     -14.841  -2.392 -15.878  0.00  0.00    +0.230 A 
ATOM      9  N1  UNL     1     -15.517  -1.288 -16.138  0.00  0.00    -0.208 NA
ENDROOT
BRANCH   8  10
ATOM     10  C9  UNL     1     -13.415  -2.568 -15.683  0.00  0.00    +0.055 A 
ATOM     11  C10 UNL     1     -12.658  -3.376 -16.535  0.00  0.00    +0.016 A 
ATOM     12  C11 UNL     1     -11.290  -3.528 -16.325  0.00  0.00    +0.059 A 
ATOM     13  C12 UNL     1     -10.656  -2.882 -15.270  0.00  0.00    +0.023 A 
ATOM     14  C13 UNL     1     -11.408  -2.079 -14.423  0.00  0.00    +0.059 A 
ATOM     15  C14 UNL     1     -12.778  -1.919 -14.623  0.00  0.00    +0.016 A 
ATOM     16 CL1  UNL     1     -10.644  -1.274 -13.116  0.00  0.00    -0.082 Cl
ATOM     17 CL2  UNL     1     -10.379  -4.524 -17.382  0.00  0.00    -0.082 Cl
ENDBRANCH   8  10
BRANCH   6  18
ATOM     18  C7  UNL     1     -20.492  -3.858 -16.294  0.00  0.00    +0.388 C 
ATOM     19  O1  UNL     1     -21.548  -3.434 -15.858  0.00  0.00    -0.241 OA
ATOM     20  O2  UNL     1     -20.322  -5.072 -16.864  0.00  0.00    -0.241 OA
ENDBRANCH   6  18
TORSDOF 2
ENDMDL
