MODEL 1
REMARK VINA RESULT:    -6.884      0.000      0.000
REMARK INTER + INTRA:         -11.434
REMARK INTER:                 -10.506
REMARK INTRA:                  -0.928
REMARK UNBOUND:                -0.928
REMARK  Name = /tmp/tmpynm3g4uv/7YCE_candidate_0034.pdb
REMARK  9 active torsions:
REMARK  status: ('A' for Active; 'I' for Inactive)
REMARK    1  A    between atoms: C7_7  and  O14_67
REMARK    2  A    between atoms: C18_19  and  O13_62
REMARK    3  A    between atoms: C25_27  and  C35_44
REMARK    4  A    between atoms: C35_44  and  C37_46
REMARK    5  A    between atoms: C37_46  and  C38_47
REMARK    6  A    between atoms: C41_50  and  O10_55
REMARK    7  A    between atoms: C42_51  and  O9_53
REMARK    8  A    between atoms: O10_55  and  C45_56
REMARK    9  A    between atoms: C45_56  and  C46_57
REMARK                            x       y       z     vdW  Elec       q    Type
REMARK                         _______ _______ _______ _____ _____    ______ ____
ROOT
ATOM      1  C1  UNL     1     -10.449  26.154 -18.800  0.00  0.00    +0.006 C 
ATOM      2  C2  UNL     1     -11.645  25.821 -17.942  0.00  0.00    +0.062 C 
ATOM      3  C3  UNL     1     -12.697  25.077 -18.723  0.00  0.00    +0.008 C 
ATOM      4  C4  UNL     1     -14.046  25.750 -18.832  0.00  0.00    +0.030 C 
ATOM      5  C5  UNL     1     -14.351  26.811 -17.791  0.00  0.00    +0.121 C 
ATOM      6  C6  UNL     1     -15.768  26.666 -17.290  0.00  0.00    +0.063 C 
ATOM      7  C7  UNL     1     -16.814  26.833 -18.376  0.00  0.00    +0.136 C 
ATOM      8  C8  UNL     1     -18.208  26.883 -17.816  0.00  0.00    -0.017 C 
ATOM      9  C9  UNL     1     -18.476  27.361 -16.592  0.00  0.00    -0.006 C 
ATOM     10  C10 UNL     1     -19.757  27.420 -15.957  0.00  0.00    -0.001 C 
ATOM     11  C11 UNL     1     -20.323  26.354 -15.387  0.00  0.00    -0.000 C 
ATOM     12  C12 UNL     1     -21.580  26.437 -14.715  0.00  0.00    -0.005 C 
ATOM     13  C13 UNL     1     -22.105  25.393 -14.073  0.00  0.00    -0.026 C 
ATOM     14  C14 UNL     1     -23.378  25.492 -13.312  0.00  0.00    +0.022 C 
ATOM     15  C15 UNL     1     -23.160  25.252 -11.834  0.00  0.00    +0.012 C 
ATOM     16  C16 UNL     1     -22.232  26.276 -11.215  0.00  0.00    +0.061 C 
ATOM     17  C17 UNL     1     -21.678  25.755  -9.915  0.00  0.00    +0.180 C 
ATOM     18  O1  UNL     1     -22.401  25.227  -9.067  0.00  0.00    -0.293 OA
ATOM     19  C18 UNL     1     -20.187  25.942  -9.681  0.00  0.00    +0.206 C 
ATOM     20  C19 UNL     1     -19.312  24.908 -10.380  0.00  0.00    +0.204 C 
ATOM     21  C20 UNL     1     -17.954  24.792  -9.752  0.00  0.00    -0.015 C 
ATOM     22  C21 UNL     1     -16.858  25.065 -10.468  0.00  0.00    -0.025 C 
ATOM     23  C22 UNL     1     -15.430  25.144 -10.052  0.00  0.00    +0.079 C 
ATOM     24  C23 UNL     1     -14.863  23.862  -9.478  0.00  0.00    +0.158 C 
ATOM     25  O2  UNL     1     -15.117  23.455  -8.342  0.00  0.00    -0.296 OA
ATOM     26  C24 UNL     1     -13.926  23.093 -10.361  0.00  0.00    +0.108 C 
ATOM     27  C25 UNL     1     -12.545  23.659 -10.143  0.00  0.00    +0.176 C 
ATOM     28  O3  UNL     1     -11.753  23.455 -11.310  0.00  0.00    -0.451 OA
ATOM     29  C26 UNL     1     -11.458  24.649 -11.909  0.00  0.00    +0.335 C 
ATOM     30  O4  UNL     1     -11.892  25.733 -11.538  0.00  0.00    -0.248 OA
ATOM     31  C27 UNL     1     -10.464  24.429 -13.046  0.00  0.00    +0.175 C 
ATOM     32  C28 UNL     1      -9.140  23.953 -12.474  0.00  0.00    +0.031 C 
ATOM     33  C29 UNL     1      -8.027  24.978 -12.531  0.00  0.00    +0.004 C 
ATOM     34  C30 UNL     1      -8.565  26.377 -12.335  0.00  0.00    +0.022 C 
ATOM     35  C31 UNL     1      -9.577  26.737 -13.406  0.00  0.00    +0.094 C 
ATOM     36  N1  UNL     1     -10.321  25.592 -13.905  0.00  0.00    -0.265 N 
ATOM     37  C32 UNL     1     -11.230  25.693 -14.954  0.00  0.00    +0.289 C 
ATOM     38  O5  UNL     1     -11.970  24.759 -15.250  0.00  0.00    -0.267 OA
ATOM     39  C33 UNL     1     -11.255  26.992 -15.787  0.00  0.00    +0.279 C 
ATOM     40  O6  UNL     1     -10.582  27.964 -15.444  0.00  0.00    -0.281 OA
ATOM     41  C34 UNL     1     -12.133  26.947 -17.046  0.00  0.00    +0.279 C 
ATOM     42  O7  UNL     1     -13.489  26.736 -16.664  0.00  0.00    -0.329 OA
ATOM     43  O8  UNL     1     -11.988  28.195 -17.721  0.00  0.00    -0.187 OA
ATOM     44  C47 UNL     1     -15.173  26.296  -9.108  0.00  0.00    +0.012 C 
ATOM     45  C48 UNL     1     -17.916  24.451  -8.301  0.00  0.00    +0.029 C 
ATOM     46  O12 UNL     1     -19.924  23.624 -10.398  0.00  0.00    -0.216 OA
ATOM     47  C50 UNL     1     -22.941  27.583 -10.956  0.00  0.00    +0.008 C 
ATOM     48  C51 UNL     1     -24.356  24.472 -13.843  0.00  0.00    +0.005 C 
ATOM     49  C52 UNL     1     -19.273  26.372 -18.726  0.00  0.00    +0.029 C 
ENDROOT
BRANCH  27  50
ATOM     50  C35 UNL     1     -11.845  23.102  -8.917  0.00  0.00    +0.041 C 
ATOM     51  C36 UNL     1     -10.908  24.157  -8.362  0.00  0.00    +0.004 C 
BRANCH  50  52
ATOM     52  C37 UNL     1     -11.107  21.806  -9.205  0.00  0.00    +0.004 C 
BRANCH  52  53
ATOM     53  C38 UNL     1     -11.807  20.584  -8.661  0.00  0.00    +0.003 C 
ATOM     54  C39 UNL     1     -10.800  19.546  -8.220  0.00  0.00    +0.003 C 
ATOM     55  C40 UNL     1     -11.507  18.359  -7.596  0.00  0.00    +0.032 C 
ATOM     56  C41 UNL     1     -12.557  17.758  -8.518  0.00  0.00    +0.142 C 
ATOM     57  C42 UNL     1     -13.528  18.838  -9.012  0.00  0.00    +0.142 C 
ATOM     58  C43 UNL     1     -12.758  19.975  -9.668  0.00  0.00    +0.032 C 
BRANCH  57  59
ATOM     59  O9  UNL     1     -14.428  18.293  -9.972  0.00  0.00    -0.351 OA
ATOM     60  C44 UNL     1     -15.176  19.365 -10.532  0.00  0.00    +0.174 C 
ENDBRANCH  57  59
BRANCH  56  61
ATOM     61  O10 UNL     1     -13.232  16.756  -7.760  0.00  0.00    -0.351 OA
BRANCH  61  62
ATOM     62  C45 UNL     1     -13.032  15.494  -8.394  0.00  0.00    +0.178 C 
BRANCH  62  63
ATOM     63  C46 UNL     1     -14.377  14.929  -8.786  0.00  0.00    +0.214 C 
ATOM     64  O11 UNL     1     -14.441  14.844 -10.203  0.00  0.00    -0.218 OA
ENDBRANCH  62  63
ENDBRANCH  61  62
ENDBRANCH  56  61
ENDBRANCH  52  53
ENDBRANCH  50  52
ENDBRANCH  27  50
BRANCH  19  65
ATOM     65  O13 UNL     1     -19.745  27.288  -9.768  0.00  0.00    -0.343 OA
ATOM     66  C49 UNL     1     -19.991  27.998  -8.556  0.00  0.00    +0.175 C 
ENDBRANCH  19  65
BRANCH   7  67
ATOM     67  O14 UNL     1     -16.555  28.025 -19.112  0.00  0.00    -0.349 OA
ATOM     68  C53 UNL     1     -16.882  29.146 -18.297  0.00  0.00    +0.174 C 
ENDBRANCH   7  67
TORSDOF 9
ENDMDL
