MODEL 1
REMARK VINA RESULT:    -4.058      0.000      0.000
REMARK INTER + INTRA:          -4.058
REMARK INTER:                  -4.058
REMARK INTRA:                   0.000
REMARK UNBOUND:                 0.000
REMARK  Name = /tmp/tmp88frxp3g/7YCE_candidate_0007.pdb
REMARK  0 active torsions:
REMARK  status: ('A' for Active; 'I' for Inactive)
REMARK                            x       y       z     vdW  Elec       q    Type
REMARK                         _______ _______ _______ _____ _____    ______ ____
ROOT
ATOM      1  C1  UNL     1     -15.565  -1.335 -16.653  0.00  0.00    +0.138 A 
ATOM      2  C2  UNL     1     -16.690  -0.692 -16.344  0.00  0.00    +0.217 A 
ATOM      3  C3  UNL     1     -18.003  -1.308 -16.632  0.00  0.00    +0.312 A 
ATOM      4  O1  UNL     1     -19.053  -0.736 -16.358  0.00  0.00    -0.263 OA
ATOM      5  N1  UNL     1     -17.933  -2.554 -17.223  0.00  0.00    -0.150 NA
ATOM      6  C4  UNL     1     -16.771  -3.237 -17.549  0.00  0.00    +0.372 A 
ATOM      7  O2  UNL     1     -16.778  -4.349 -18.075  0.00  0.00    -0.243 OA
ATOM      8  N2  UNL     1     -15.597  -2.570 -17.237  0.00  0.00    -0.187 NA
ATOM      9  F1  UNL     1     -16.687   0.524 -15.770  0.00  0.00    -0.197 F 
ENDROOT
TORSDOF 0
ENDMDL
