MODEL 1
REMARK VINA RESULT:    -5.936      0.000      0.000
REMARK INTER + INTRA:          -7.585
REMARK INTER:                  -6.977
REMARK INTRA:                  -0.607
REMARK UNBOUND:                -0.607
REMARK  Name = /tmp/tmpldz1twj7/7YCE_candidate_0092.pdb
REMARK  3 active torsions:
REMARK  status: ('A' for Active; 'I' for Inactive)
REMARK    1  A    between atoms: N1_7  and  C9_10
REMARK    2  A    between atoms: C11_13  and  S1_17
REMARK    3  A    between atoms: S1_17  and  C13_18
REMARK                            x       y       z     vdW  Elec       q    Type
REMARK                         _______ _______ _______ _____ _____    ______ ____
ROOT
ATOM      1  C9  UNL     1     -12.472  -3.490 -15.528  0.00  0.00    +0.153 A 
ATOM      2  C10 UNL     1     -12.613  -2.851 -16.766  0.00  0.00    +0.134 A 
ATOM      3  N2  UNL     1     -13.646  -3.048 -17.617  0.00  0.00    -0.231 NA
ATOM      4  C11 UNL     1     -14.597  -3.913 -17.183  0.00  0.00    +0.146 A 
ATOM      5  C12 UNL     1     -14.496  -4.567 -15.941  0.00  0.00    +0.195 A 
ATOM      6  N3  UNL     1     -13.431  -4.351 -15.117  0.00  0.00    -0.209 NA
ATOM      7  N4  UNL     1     -15.499  -5.465 -15.521  0.00  0.00    -0.105 NA
ENDROOT
BRANCH   1  14
ATOM      8  C1  UNL     1      -6.167  -1.387 -15.073  0.00  0.00    +0.034 C 
ATOM      9  C2  UNL     1      -7.450  -1.442 -14.285  0.00  0.00    +0.133 C 
ATOM     10  C3  UNL     1      -8.371  -2.621 -14.563  0.00  0.00    +0.121 C 
ATOM     11  C4  UNL     1      -9.191  -2.618 -13.277  0.00  0.00    +0.049 C 
ATOM     12  C5  UNL     1     -10.254  -1.524 -13.341  0.00  0.00    +0.025 C 
ATOM     13  C6  UNL     1     -11.568  -1.964 -13.959  0.00  0.00    +0.092 C 
ATOM     14  N1  UNL     1     -11.395  -3.212 -14.681  0.00  0.00    -0.292 N 
ATOM     15  C7  UNL     1     -10.950  -4.346 -13.891  0.00  0.00    +0.092 C 
ATOM     16  C8  UNL     1      -9.843  -3.946 -12.932  0.00  0.00    +0.025 C 
ATOM     17  C18 UNL     1      -8.165  -2.227 -12.232  0.00  0.00    +0.144 C 
ATOM     18  O1  UNL     1      -7.197  -1.389 -12.880  0.00  0.00    -0.355 OA
ATOM     19  N7  UNL     1      -7.606  -3.858 -14.709  0.00  0.00    -0.130 NA
ENDBRANCH   1  14
BRANCH   4  20
ATOM     20  S1  UNL     1     -15.980  -4.196 -18.290  0.00  0.00    -0.064 S 
BRANCH  20  21
ATOM     21  C13 UNL     1     -17.248  -3.182 -17.537  0.00  0.00    +0.046 A 
ATOM     22  C14 UNL     1     -18.500  -3.648 -17.113  0.00  0.00    +0.098 A 
ATOM     23  C15 UNL     1     -19.393  -2.733 -16.536  0.00  0.00    +0.181 A 
ATOM     24  N5  UNL     1     -19.086  -1.419 -16.385  0.00  0.00    -0.225 NA
ATOM     25  C16 UNL     1     -17.874  -1.004 -16.809  0.00  0.00    +0.101 A 
ATOM     26  C17 UNL     1     -16.936  -1.833 -17.388  0.00  0.00    +0.028 A 
ATOM     27  N6  UNL     1     -20.662  -3.171 -16.094  0.00  0.00    -0.106 NA
ATOM     28 CL1  UNL     1     -18.954  -5.314 -17.304  0.00  0.00    -0.079 Cl
ENDBRANCH  20  21
ENDBRANCH   4  20
TORSDOF 3
ENDMDL
