MODEL 1
REMARK VINA RESULT:    -6.684      0.000      0.000
REMARK INTER + INTRA:          -7.919
REMARK INTER:                  -7.857
REMARK INTRA:                  -0.062
REMARK UNBOUND:                -0.062
REMARK  Name = /tmp/tmpjqzqx3u4/7YCE_candidate_0095.pdb
REMARK  3 active torsions:
REMARK  status: ('A' for Active; 'I' for Inactive)
REMARK    1  A    between atoms: N1_3  and  C13_16
REMARK    2  A    between atoms: C15_19  and  S1_22
REMARK    3  A    between atoms: S1_22  and  C17_23
REMARK                            x       y       z     vdW  Elec       q    Type
REMARK                         _______ _______ _______ _____ _____    ______ ____
ROOT
ATOM      1  C1  UNL     1     -14.340  -3.796 -17.503  0.00  0.00    +0.024 C 
ATOM      2  C2  UNL     1     -13.145  -3.850 -16.567  0.00  0.00    +0.092 C 
ATOM      3  N1  UNL     1     -13.417  -3.176 -15.306  0.00  0.00    -0.292 N 
ATOM      4  C3  UNL     1     -14.216  -1.961 -15.403  0.00  0.00    +0.092 C 
ATOM      5  C4  UNL     1     -15.589  -2.266 -15.982  0.00  0.00    +0.024 C 
ATOM      6  C5  UNL     1     -15.663  -3.578 -16.782  0.00  0.00    +0.029 C 
ATOM      7  C6  UNL     1     -16.791  -3.444 -17.820  0.00  0.00    +0.047 C 
ATOM      8  C7  UNL     1     -17.969  -3.949 -17.040  0.00  0.00    +0.056 A 
ATOM      9  C8  UNL     1     -17.560  -4.660 -15.921  0.00  0.00    +0.009 A 
ATOM     10  C9  UNL     1     -16.067  -4.743 -15.832  0.00  0.00    +0.115 C 
ATOM     11  N2  UNL     1     -15.628  -6.038 -16.347  0.00  0.00    -0.128 NA
ATOM     12  C10 UNL     1     -18.511  -5.181 -15.067  0.00  0.00    -0.000 A 
ATOM     13  C11 UNL     1     -19.849  -4.964 -15.381  0.00  0.00    +0.020 A 
ATOM     14  C12 UNL     1     -20.164  -4.253 -16.528  0.00  0.00    +0.098 A 
ATOM     15  N3  UNL     1     -19.247  -3.721 -17.367  0.00  0.00    -0.248 NA
ENDROOT
BRANCH   3  16
ATOM     16  C13 UNL     1     -12.216  -2.920 -14.606  0.00  0.00    +0.151 A 
ATOM     17  C14 UNL     1     -11.820  -1.602 -14.313  0.00  0.00    +0.134 A 
ATOM     18  N4  UNL     1     -10.697  -1.275 -13.626  0.00  0.00    -0.233 NA
ATOM     19  C15 UNL     1      -9.927  -2.321 -13.263  0.00  0.00    +0.130 A 
ATOM     20  C16 UNL     1     -10.288  -3.631 -13.565  0.00  0.00    +0.126 A 
ATOM     21  N5  UNL     1     -11.421  -3.954 -14.241  0.00  0.00    -0.225 NA
BRANCH  19  22
ATOM     22  S1  UNL     1      -8.457  -1.960 -12.323  0.00  0.00    -0.065 S 
BRANCH  22  23
ATOM     23  C17 UNL     1      -8.679  -0.225 -11.950  0.00  0.00    +0.046 A 
ATOM     24  C18 UNL     1      -7.866   0.827 -12.412  0.00  0.00    +0.098 A 
ATOM     25  C19 UNL     1      -8.215   2.144 -12.072  0.00  0.00    +0.181 A 
ATOM     26  N6  UNL     1      -9.318   2.429 -11.323  0.00  0.00    -0.225 NA
ATOM     27  C20 UNL     1     -10.085   1.402 -10.914  0.00  0.00    +0.101 A 
ATOM     28  C21 UNL     1      -9.815   0.078 -11.202  0.00  0.00    +0.028 A 
ATOM     29  N7  UNL     1      -7.417   3.221 -12.514  0.00  0.00    -0.106 NA
ATOM     30 CL1  UNL     1      -6.483   0.521 -13.400  0.00  0.00    -0.079 Cl
ENDBRANCH  22  23
ENDBRANCH  19  22
ENDBRANCH   3  16
TORSDOF 3
ENDMDL
