MODEL 1
REMARK VINA RESULT:    -6.754      0.000      0.000
REMARK INTER + INTRA:          -9.338
REMARK INTER:                  -7.938
REMARK INTRA:                  -1.400
REMARK UNBOUND:                -1.400
REMARK  Name = /tmp/tmpj47v38nt/7YCE_candidate_0069.pdb
REMARK  3 active torsions:
REMARK  status: ('A' for Active; 'I' for Inactive)
REMARK    1  A    between atoms: C2_2  and  C3_3
REMARK    2  A    between atoms: C12_16  and  C17_23
REMARK    3  A    between atoms: C19_25  and  C25_34
REMARK                            x       y       z     vdW  Elec       q    Type
REMARK                         _______ _______ _______ _____ _____    ______ ____
ROOT
ATOM      1  C3  UNL     1     -13.383  11.855  -9.710  0.00  0.00    +0.249 C 
ATOM      2  O1  UNL     1     -13.401  13.079  -9.746  0.00  0.00    -0.270 OA
ATOM      3  N1  UNL     1     -14.340  11.060 -10.293  0.00  0.00    -0.273 N 
ATOM      4  C4  UNL     1     -14.373   9.618 -10.140  0.00  0.00    +0.115 C 
ATOM      5  C5  UNL     1     -15.554   8.936 -10.812  0.00  0.00    +0.115 C 
ATOM      6  N2  UNL     1     -16.818   9.638 -10.676  0.00  0.00    -0.274 N 
ATOM      7  C6  UNL     1     -16.797  11.086 -10.464  0.00  0.00    +0.099 C 
ATOM      8  C7  UNL     1     -15.480  11.711 -10.914  0.00  0.00    +0.114 C 
ATOM      9  C8  UNL     1     -17.036  11.444  -9.008  0.00  0.00    +0.069 C 
ATOM     10  C9  UNL     1     -18.508  11.612  -8.720  0.00  0.00    +0.207 C 
ATOM     11  O2  UNL     1     -19.145  10.332  -8.729  0.00  0.00    -0.474 OA
ATOM     12  C10 UNL     1     -19.833  10.257  -9.913  0.00  0.00    +0.153 A 
ATOM     13  C11 UNL     1     -21.123  10.809 -10.027  0.00  0.00    +0.094 A 
ATOM     14  C12 UNL     1     -21.826  10.739 -11.248  0.00  0.00    +0.041 A 
ATOM     15  C13 UNL     1     -21.218  10.048 -12.312  0.00  0.00    +0.141 A 
ATOM     16  C14 UNL     1     -19.962   9.464 -12.198  0.00  0.00    +0.037 A 
ATOM     17  C15 UNL     1     -19.262   9.585 -11.001  0.00  0.00    +0.091 A 
ATOM     18  C16 UNL     1     -17.958   8.903 -10.944  0.00  0.00    +0.252 C 
ATOM     19  O3  UNL     1     -17.935   7.703 -11.214  0.00  0.00    -0.270 OA
ATOM     20  F1  UNL     1     -21.856   9.956 -13.491  0.00  0.00    -0.204 F 
ATOM     21 CL1  UNL     1     -21.839  11.609  -8.657  0.00  0.00    -0.079 Cl
ENDROOT
BRANCH  14  22
ATOM     22  C17 UNL     1     -23.138  11.364 -11.453  0.00  0.00    +0.004 A 
ATOM     23  C18 UNL     1     -23.246  12.742 -11.849  0.00  0.00    +0.020 A 
ATOM     24  C19 UNL     1     -22.259  13.784 -12.092  0.00  0.00    +0.092 A 
ATOM     25  C20 UNL     1     -22.813  14.993 -12.456  0.00  0.00    +0.128 A 
ATOM     26  S1  UNL     1     -24.511  14.905 -12.522  0.00  0.00    -0.066 S 
ATOM     27  C21 UNL     1     -24.542  13.243 -12.057  0.00  0.00    +0.059 A 
ATOM     28  C22 UNL     1     -25.682  12.437 -11.896  0.00  0.00    +0.146 A 
ATOM     29  C23 UNL     1     -25.553  11.110 -11.522  0.00  0.00    +0.030 A 
ATOM     30  C24 UNL     1     -24.295  10.584 -11.298  0.00  0.00    +0.002 A 
ATOM     31  F2  UNL     1     -26.904  12.947 -12.093  0.00  0.00    -0.204 F 
ATOM     32  N3  UNL     1     -22.158  16.159 -12.732  0.00  0.00    -0.120 NA
BRANCH  24  33
ATOM     33  C25 UNL     1     -20.840  13.620 -11.967  0.00  0.00    +0.102 C 
ATOM     34  N4  UNL     1     -19.694  13.525 -11.815  0.00  0.00    -0.191 NA
ENDBRANCH  24  33
ENDBRANCH  14  22
BRANCH   1  36
ATOM     35  C1  UNL     1     -11.054  11.522  -9.332  0.00  0.00    +0.005 C 
ATOM     36  C2  UNL     1     -12.298  11.113  -9.031  0.00  0.00    +0.058 C 
ENDBRANCH   1  36
TORSDOF 3
ENDMDL
