MODEL 1
REMARK VINA RESULT:    -7.205      0.000      0.000
REMARK INTER + INTRA:          -8.501
REMARK INTER:                  -8.048
REMARK INTRA:                  -0.453
REMARK UNBOUND:                -0.453
REMARK  Name = /tmp/tmp5hhu28z2/7YCE_candidate_0062.pdb
REMARK  2 active torsions:
REMARK  status: ('A' for Active; 'I' for Inactive)
REMARK    1  A    between atoms: C6_8  and  C7_10
REMARK    2  A    between atoms: C16_23  and  C17_24
REMARK                            x       y       z     vdW  Elec       q    Type
REMARK                         _______ _______ _______ _____ _____    ______ ____
ROOT
ATOM      1  C1  UNL     1     -22.613  26.433 -11.998  0.00  0.00    +0.023 C 
ATOM      2  C2  UNL     1     -21.795  26.008 -13.200  0.00  0.00    +0.095 C 
ATOM      3  C3  UNL     1     -20.374  26.515 -12.983  0.00  0.00    +0.112 C 
ATOM      4  N1  UNL     1     -19.492  26.393 -14.152  0.00  0.00    -0.291 N 
ATOM      5  C4  UNL     1     -20.134  26.445 -15.459  0.00  0.00    +0.094 C 
ATOM      6  C5  UNL     1     -21.508  27.109 -15.409  0.00  0.00    +0.113 C 
ATOM      7  N2  UNL     1     -22.396  26.473 -14.447  0.00  0.00    -0.274 N 
ATOM      8  C6  UNL     1     -23.670  26.062 -14.788  0.00  0.00    +0.249 C 
ATOM      9  O1  UNL     1     -24.373  25.359 -14.071  0.00  0.00    -0.270 OA
ATOM     10  C9  UNL     1     -20.246  25.048 -16.037  0.00  0.00    +0.023 C 
ATOM     11  C10 UNL     1     -18.127  26.269 -13.918  0.00  0.00    +0.139 A 
ATOM     12  N3  UNL     1     -17.750  26.041 -12.694  0.00  0.00    -0.177 NA
ATOM     13  C11 UNL     1     -16.436  25.901 -12.328  0.00  0.00    +0.356 A 
ATOM     14  O2  UNL     1     -16.154  25.779 -11.138  0.00  0.00    -0.244 OA
ATOM     15  N4  UNL     1     -15.458  25.910 -13.316  0.00  0.00    -0.239 N 
ATOM     16  C12 UNL     1     -14.075  25.798 -12.967  0.00  0.00    +0.117 A 
ATOM     17  C13 UNL     1     -13.154  26.827 -13.246  0.00  0.00    +0.158 A 
ATOM     18  C14 UNL     1     -11.818  26.681 -12.878  0.00  0.00    +0.059 A 
ATOM     19  C15 UNL     1     -11.435  25.513 -12.249  0.00  0.00    +0.102 A 
ATOM     20  N5  UNL     1     -12.277  24.500 -11.966  0.00  0.00    -0.246 NA
ATOM     21  C16 UNL     1     -13.585  24.657 -12.310  0.00  0.00    +0.078 A 
ATOM     22  O3  UNL     1     -13.618  27.985 -13.828  0.00  0.00    -0.470 OA
ATOM     23  C20 UNL     1     -12.568  28.844 -14.272  0.00  0.00    +0.253 C 
ATOM     24  C21 UNL     1     -12.126  28.512 -15.689  0.00  0.00    +0.253 C 
ATOM     25  O4  UNL     1     -13.224  28.571 -16.597  0.00  0.00    -0.469 OA
ATOM     26  C22 UNL     1     -13.007  27.629 -17.575  0.00  0.00    +0.170 A 
ATOM     27  C23 UNL     1     -11.889  27.700 -18.414  0.00  0.00    +0.174 A 
ATOM     28  C24 UNL     1     -11.705  26.780 -19.440  0.00  0.00    +0.035 A 
ATOM     29  C25 UNL     1     -12.651  25.780 -19.638  0.00  0.00    +0.032 A 
ATOM     30  C26 UNL     1     -13.770  25.711 -18.809  0.00  0.00    +0.145 A 
ATOM     31  C27 UNL     1     -13.977  26.628 -17.771  0.00  0.00    +0.082 A 
ATOM     32  C28 UNL     1     -15.138  26.516 -16.889  0.00  0.00    +0.099 A 
ATOM     33  C29 UNL     1     -16.441  26.812 -17.263  0.00  0.00    +0.076 A 
ATOM     34  C30 UNL     1     -17.432  26.724 -16.297  0.00  0.00    +0.019 A 
ATOM     35  C31 UNL     1     -17.115  26.383 -14.988  0.00  0.00    +0.067 A 
ATOM     36  C32 UNL     1     -15.793  26.153 -14.663  0.00  0.00    +0.154 A 
ATOM     37  N6  UNL     1     -14.824  26.150 -15.617  0.00  0.00    -0.227 NA
ATOM     38 CL1  UNL     1     -16.896  27.321 -18.840  0.00  0.00    -0.081 Cl
ATOM     39  F1  UNL     1     -14.659  24.728 -19.019  0.00  0.00    -0.204 F 
ATOM     40  F2  UNL     1     -10.980  28.672 -18.245  0.00  0.00    -0.201 F 
ENDROOT
BRANCH  21  41
ATOM     41  C17 UNL     1     -14.489  23.490 -12.029  0.00  0.00    +0.042 C 
ATOM     42  C18 UNL     1     -14.218  22.894 -10.669  0.00  0.00    +0.006 C 
ATOM     43  C19 UNL     1     -14.336  22.435 -13.098  0.00  0.00    +0.006 C 
ENDBRANCH  21  41
BRANCH   8  44
ATOM     44  C7  UNL     1     -24.125  26.544 -16.116  0.00  0.00    +0.058 C 
ATOM     45  C8  UNL     1     -25.220  27.304 -16.168  0.00  0.00    +0.005 C 
ENDBRANCH   8  44
TORSDOF 2
ENDMDL
