MODEL 1
REMARK VINA RESULT:    -6.265      0.000      0.000
REMARK INTER + INTRA:          -7.873
REMARK INTER:                  -7.364
REMARK INTRA:                  -0.510
REMARK UNBOUND:                -0.510
REMARK  Name = /tmp/tmpj7kz6526/7YCE_candidate_0037.pdb
REMARK  3 active torsions:
REMARK  status: ('A' for Active; 'I' for Inactive)
REMARK    1  A    between atoms: C3_4  and  C4_6
REMARK    2  A    between atoms: N4_14  and  C10_15
REMARK    3  A    between atoms: C17_24  and  N7_27
REMARK                            x       y       z     vdW  Elec       q    Type
REMARK                         _______ _______ _______ _____ _____    ______ ____
ROOT
ATOM      1  C4  UNL     1     -10.332  26.385 -17.939  0.00  0.00    +0.115 A 
ATOM      2  C5  UNL     1     -11.209  26.316 -19.011  0.00  0.00    +0.026 A 
ATOM      3  C6  UNL     1     -12.534  26.285 -18.531  0.00  0.00    +0.055 A 
ATOM      4  C7  UNL     1     -13.806  26.220 -19.078  0.00  0.00    +0.105 A 
ATOM      5  N2  UNL     1     -14.881  26.212 -18.253  0.00  0.00    -0.210 NA
ATOM      6  C8  UNL     1     -14.708  26.267 -16.910  0.00  0.00    +0.244 A 
ATOM      7  N3  UNL     1     -13.503  26.327 -16.310  0.00  0.00    -0.195 NA
ATOM      8  C9  UNL     1     -12.463  26.336 -17.156  0.00  0.00    +0.148 A 
ATOM      9  N4  UNL     1     -11.137  26.395 -16.807  0.00  0.00    -0.311 N 
ATOM     10  N5  UNL     1     -15.822  26.251 -16.045  0.00  0.00    -0.159 NA
ATOM     11  C15 UNL     1     -17.191  26.267 -16.369  0.00  0.00    +0.155 A 
ATOM     12  N6  UNL     1     -18.077  26.163 -15.349  0.00  0.00    -0.226 NA
ATOM     13  C16 UNL     1     -19.397  26.188 -15.652  0.00  0.00    +0.115 A 
ATOM     14  C17 UNL     1     -19.942  26.292 -16.930  0.00  0.00    +0.067 A 
ATOM     15  C18 UNL     1     -19.003  26.417 -17.948  0.00  0.00    +0.019 A 
ATOM     16  C19 UNL     1     -17.637  26.401 -17.679  0.00  0.00    +0.037 A 
ENDROOT
BRANCH  14  17
ATOM     17  N7  UNL     1     -21.311  26.344 -17.174  0.00  0.00    -0.303 N 
ATOM     18  C20 UNL     1     -21.896  27.680 -17.239  0.00  0.00    +0.110 C 
ATOM     19  C21 UNL     1     -23.419  27.606 -17.279  0.00  0.00    +0.110 C 
ATOM     20  N8  UNL     1     -24.027  26.925 -16.136  0.00  0.00    -0.214 NA
ATOM     21  C22 UNL     1     -23.127  25.933 -15.551  0.00  0.00    +0.110 C 
ATOM     22  C23 UNL     1     -22.122  25.318 -16.521  0.00  0.00    +0.110 C 
ENDBRANCH  14  17
BRANCH   1  26
ATOM     23  C1  UNL     1      -8.908  28.955 -17.852  0.00  0.00    +0.115 C 
ATOM     24  N1  UNL     1      -8.254  27.674 -17.861  0.00  0.00    -0.271 N 
ATOM     25  C2  UNL     1      -6.817  27.701 -17.827  0.00  0.00    +0.115 C 
ATOM     26  C3  UNL     1      -8.878  26.439 -17.902  0.00  0.00    +0.265 C 
ATOM     27  O1  UNL     1      -8.199  25.411 -17.908  0.00  0.00    -0.268 OA
ENDBRANCH   1  26
BRANCH   9  28
ATOM     28  C10 UNL     1     -10.629  26.461 -15.453  0.00  0.00    +0.087 C 
ATOM     29  C11 UNL     1     -11.113  27.682 -14.703  0.00  0.00    +0.023 C 
ATOM     30  C12 UNL     1     -10.968  27.299 -13.245  0.00  0.00    +0.002 C 
ATOM     31  C13 UNL     1     -11.129  25.790 -13.186  0.00  0.00    +0.002 C 
ATOM     32  C14 UNL     1     -11.046  25.273 -14.610  0.00  0.00    +0.023 C 
ENDBRANCH   9  28
TORSDOF 3
ENDMDL
