MODEL 1
REMARK VINA RESULT:    -5.124      0.000      0.000
REMARK INTER + INTRA:          -8.825
REMARK INTER:                  -7.820
REMARK INTRA:                  -1.005
REMARK UNBOUND:                -1.005
REMARK  Name = /tmp/tmp_djx0w1f/7YCE_candidate_0086.pdb
REMARK  9 active torsions:
REMARK  status: ('A' for Active; 'I' for Inactive)
REMARK    1  A    between atoms: C2_2  and  N1_3
REMARK    2  A    between atoms: N1_3  and  C3_4
REMARK    3  A    between atoms: N1_3  and  C17_21
REMARK    4  A    between atoms: C3_4  and  C4_5
REMARK    5  A    between atoms: C4_5  and  C5_6
REMARK    6  A    between atoms: C5_6  and  C6_7
REMARK    7  A    between atoms: C6_7  and  N2_9
REMARK    8  A    between atoms: N2_9  and  C8_10
REMARK    9  A    between atoms: C17_21  and  C18_22
REMARK                            x       y       z     vdW  Elec       q    Type
REMARK                         _______ _______ _______ _____ _____    ______ ____
ROOT
ATOM      1  N2  UNL     1     -15.477  -3.652 -17.572  0.00  0.00    -0.239 NA
ENDROOT
BRANCH   1   2
ATOM      2  C8  UNL     1     -16.411  -2.686 -17.140  0.00  0.00    +0.068 A 
ATOM      3  C9  UNL     1     -17.751  -3.061 -16.911  0.00  0.00    +0.033 A 
ATOM      4  C10 UNL     1     -18.199  -4.379 -17.105  0.00  0.00    +0.004 A 
ATOM      5  C11 UNL     1     -19.522  -4.731 -16.873  0.00  0.00    +0.012 A 
ATOM      6  C12 UNL     1     -20.407  -3.756 -16.443  0.00  0.00    +0.059 A 
ATOM      7  C13 UNL     1     -19.978  -2.448 -16.245  0.00  0.00    +0.031 A 
ATOM      8  C14 UNL     1     -18.662  -2.077 -16.471  0.00  0.00    +0.083 A 
ATOM      9  N3  UNL     1     -18.299  -0.802 -16.264  0.00  0.00    -0.244 NA
ATOM     10  C15 UNL     1     -17.013  -0.467 -16.496  0.00  0.00    +0.100 A 
ATOM     11  C16 UNL     1     -16.048  -1.356 -16.927  0.00  0.00    +0.037 A 
ATOM     12 CL1  UNL     1     -22.046  -4.166 -16.146  0.00  0.00    -0.082 Cl
ENDBRANCH   1   2
BRANCH   1  13
ATOM     13  C6  UNL     1     -14.421  -3.961 -16.620  0.00  0.00    +0.093 C 
ATOM     14  C7  UNL     1     -13.655  -5.157 -17.134  0.00  0.00    +0.023 C 
BRANCH  13  15
ATOM     15  C5  UNL     1     -15.036  -4.307 -15.282  0.00  0.00    +0.023 C 
BRANCH  15  16
ATOM     16  C4  UNL     1     -14.396  -3.492 -14.185  0.00  0.00    +0.019 C 
BRANCH  16  17
ATOM     17  C3  UNL     1     -13.330  -2.590 -14.765  0.00  0.00    +0.072 C 
BRANCH  17  18
ATOM     18  N1  UNL     1     -12.089  -2.568 -14.011  0.00  0.00    -0.270 NA
BRANCH  18  20
ATOM     19  C1  UNL     1     -10.501  -1.011 -13.051  0.00  0.00    +0.019 C 
ATOM     20  C2  UNL     1     -11.355  -1.339 -14.254  0.00  0.00    +0.072 C 
ENDBRANCH  18  20
BRANCH  18  21
ATOM     21  C17 UNL     1     -11.300  -3.762 -14.280  0.00  0.00    +0.108 C 
BRANCH  21  22
ATOM     22  C18 UNL     1     -10.572  -3.824 -15.613  0.00  0.00    +0.199 C 
ATOM     23  O1  UNL     1     -10.156  -5.162 -15.847  0.00  0.00    -0.219 OA
ENDBRANCH  21  22
ENDBRANCH  18  21
ENDBRANCH  17  18
ENDBRANCH  16  17
ENDBRANCH  15  16
ENDBRANCH  13  15
ENDBRANCH   1  13
TORSDOF 9
ENDMDL
