MODEL 1
REMARK VINA RESULT:    -4.708      0.000      0.000
REMARK INTER + INTRA:          -7.320
REMARK INTER:                  -6.360
REMARK INTRA:                  -0.960
REMARK UNBOUND:                -0.960
REMARK  Name = /tmp/tmpebo9s9r4/7YCE_candidate_0020.pdb
REMARK  6 active torsions:
REMARK  status: ('A' for Active; 'I' for Inactive)
REMARK    1  A    between atoms: C3_3  and  N1_9
REMARK    2  A    between atoms: N1_9  and  C7_10
REMARK    3  A    between atoms: C8_11  and  C12_16
REMARK    4  A    between atoms: N3_18  and  C13_19
REMARK    5  A    between atoms: C13_19  and  C14_20
REMARK    6  A    between atoms: C14_20  and  C15_21
REMARK                            x       y       z     vdW  Elec       q    Type
REMARK                         _______ _______ _______ _____ _____    ______ ____
ROOT
ATOM      1  C7  UNL     1     -11.749  -4.718 -16.244  0.00  0.00    +0.094 A 
ATOM      2  C8  UNL     1     -12.883  -4.439 -17.015  0.00  0.00    +0.073 A 
ATOM      3  C9  UNL     1     -12.847  -4.619 -18.401  0.00  0.00    +0.027 A 
ATOM      4  C10 UNL     1     -11.686  -5.097 -18.977  0.00  0.00    +0.099 A 
ATOM      5  N2  UNL     1     -10.585  -5.417 -18.273  0.00  0.00    -0.241 NA
ATOM      6  C11 UNL     1     -10.651  -5.222 -16.937  0.00  0.00    +0.115 A 
ENDROOT
BRANCH   2   7
ATOM      7  C12 UNL     1     -14.178  -4.014 -16.431  0.00  0.00    +0.266 C 
ATOM      8  O1  UNL     1     -15.053  -4.817 -16.130  0.00  0.00    -0.268 OA
ATOM      9  N3  UNL     1     -14.306  -2.655 -16.247  0.00  0.00    -0.199 NA
BRANCH   9  10
ATOM     10  C13 UNL     1     -15.511  -2.067 -15.708  0.00  0.00    +0.151 C 
BRANCH  10  11
ATOM     11  C14 UNL     1     -16.273  -1.231 -16.717  0.00  0.00    +0.206 C 
ATOM     12  O3  UNL     1     -16.620   0.002 -16.104  0.00  0.00    -0.218 OA
BRANCH  11  13
ATOM     13  C15 UNL     1     -17.533  -1.919 -17.198  0.00  0.00    +0.217 C 
ATOM     14  O2  UNL     1     -17.232  -3.083 -17.952  0.00  0.00    -0.218 OA
ENDBRANCH  11  13
ENDBRANCH  10  11
ENDBRANCH   9  10
ENDBRANCH   2   7
BRANCH   1  15
ATOM     15  N1  UNL     1     -11.621  -4.569 -14.850  0.00  0.00    -0.208 NA
BRANCH  15  18
ATOM     16  C1  UNL     1     -11.021  -1.173 -13.515  0.00  0.00    +0.007 A 
ATOM     17  C2  UNL     1     -11.574  -2.256 -14.195  0.00  0.00    +0.019 A 
ATOM     18  C3  UNL     1     -10.996  -3.529 -14.126  0.00  0.00    +0.098 A 
ATOM     19  C4  UNL     1      -9.859  -3.690 -13.324  0.00  0.00    +0.156 A 
ATOM     20  C5  UNL     1      -9.296  -2.616 -12.638  0.00  0.00    +0.037 A 
ATOM     21  C6  UNL     1      -9.880  -1.362 -12.744  0.00  0.00    +0.032 A 
ATOM     22  I1  UNL     1      -9.046   0.235 -11.746  0.00  0.00    -0.042 I 
ATOM     23  F1  UNL     1      -9.279  -4.892 -13.193  0.00  0.00    -0.203 F 
ENDBRANCH  15  18
ENDBRANCH   1  15
TORSDOF 6
ENDMDL
