MODEL 1
REMARK VINA RESULT:    -4.637      0.000      0.000
REMARK INTER + INTRA:          -9.079
REMARK INTER:                  -7.076
REMARK INTRA:                  -2.002
REMARK UNBOUND:                -2.002
REMARK  Name = /tmp/tmpgn9gu1u7/7YCE_candidate_0055.pdb
REMARK  9 active torsions:
REMARK  status: ('A' for Active; 'I' for Inactive)
REMARK    1  A    between atoms: C5_5  and  C15_22
REMARK    2  A    between atoms: C7_8  and  C8_10
REMARK    3  A    between atoms: C8_10  and  C9_11
REMARK    4  A    between atoms: C8_10  and  N2_15
REMARK    5  A    between atoms: C13_16  and  C14_18
REMARK    6  A    between atoms: N3_24  and  C16_25
REMARK    7  A    between atoms: C16_25  and  C17_26
REMARK    8  A    between atoms: C16_25  and  C22_33
REMARK    9  A    between atoms: C17_26  and  C18_27
REMARK                            x       y       z     vdW  Elec       q    Type
REMARK                         _______ _______ _______ _____ _____    ______ ____
ROOT
ATOM      1  C1  UNL     1      -8.672  25.814 -15.894  0.00  0.00    +0.000 C 
ATOM      2  C2  UNL     1      -9.017  25.905 -14.448  0.00  0.00    +0.004 C 
ATOM      3  C3  UNL     1      -9.943  26.995 -13.964  0.00  0.00    +0.022 C 
ATOM      4  C4  UNL     1     -10.422  25.580 -13.999  0.00  0.00    +0.029 C 
ATOM      5  C5  UNL     1     -11.581  25.499 -14.954  0.00  0.00    +0.154 C 
ATOM      6  N1  UNL     1     -11.726  26.866 -15.468  0.00  0.00    -0.272 N 
ATOM      7  C6  UNL     1     -10.775  27.808 -14.910  0.00  0.00    +0.094 C 
ATOM      8  C7  UNL     1     -12.556  27.273 -16.487  0.00  0.00    +0.246 C 
ATOM      9  O1  UNL     1     -12.557  28.433 -16.898  0.00  0.00    -0.273 OA
ATOM     10  C23 UNL     1      -7.914  25.511 -13.529  0.00  0.00    +0.000 C 
ENDROOT
BRANCH   5  11
ATOM     11  C15 UNL     1     -12.863  25.045 -14.255  0.00  0.00    +0.260 C 
ATOM     12  O3  UNL     1     -13.480  24.052 -14.643  0.00  0.00    -0.272 OA
ATOM     13  N3  UNL     1     -13.282  25.873 -13.239  0.00  0.00    -0.190 NA
BRANCH  13  14
ATOM     14  C16 UNL     1     -14.573  25.700 -12.628  0.00  0.00    +0.186 C 
BRANCH  14  15
ATOM     15  C22 UNL     1     -15.232  26.994 -12.429  0.00  0.00    +0.094 C 
ATOM     16  N5  UNL     1     -15.765  28.012 -12.259  0.00  0.00    -0.194 NA
ENDBRANCH  14  15
BRANCH  14  17
ATOM     17  C17 UNL     1     -14.484  24.972 -11.306  0.00  0.00    +0.046 C 
BRANCH  17  18
ATOM     18  C18 UNL     1     -15.041  23.574 -11.426  0.00  0.00    +0.083 C 
ATOM     19  C19 UNL     1     -16.028  23.257 -10.316  0.00  0.00    +0.033 C 
ATOM     20  C20 UNL     1     -15.850  21.764 -10.103  0.00  0.00    +0.116 C 
ATOM     21  N4  UNL     1     -14.485  21.512 -10.477  0.00  0.00    -0.205 NA
ATOM     22  C21 UNL     1     -13.951  22.556 -11.223  0.00  0.00    +0.241 C 
ATOM     23  O4  UNL     1     -12.819  22.629 -11.677  0.00  0.00    -0.273 OA
ENDBRANCH  17  18
ENDBRANCH  14  17
ENDBRANCH  13  14
ENDBRANCH   5  11
BRANCH   8  24
ATOM     24  C8  UNL     1     -13.466  26.194 -17.093  0.00  0.00    +0.171 C 
BRANCH  24  25
ATOM     25  C9  UNL     1     -12.808  25.430 -18.243  0.00  0.00    +0.027 C 
ATOM     26  C10 UNL     1     -11.364  25.837 -18.450  0.00  0.00    +0.002 C 
ATOM     27  C11 UNL     1     -12.851  23.935 -18.014  0.00  0.00    +0.002 C 
ATOM     28  C12 UNL     1     -13.573  25.697 -19.524  0.00  0.00    +0.002 C 
ENDBRANCH  24  25
BRANCH  24  29
ATOM     29  N2  UNL     1     -14.710  26.820 -17.497  0.00  0.00    -0.191 NA
ATOM     30  C13 UNL     1     -15.874  26.626 -16.776  0.00  0.00    +0.337 C 
ATOM     31  O2  UNL     1     -15.924  25.891 -15.782  0.00  0.00    -0.264 OA
BRANCH  30  32
ATOM     32  C14 UNL     1     -17.067  27.415 -17.328  0.00  0.00    +0.471 C 
ATOM     33  F1  UNL     1     -17.567  28.300 -16.422  0.00  0.00    -0.162 F 
ATOM     34  F2  UNL     1     -18.101  26.600 -17.684  0.00  0.00    -0.162 F 
ATOM     35  F3  UNL     1     -16.762  28.136 -18.443  0.00  0.00    -0.162 F 
ENDBRANCH  30  32
ENDBRANCH  24  29
ENDBRANCH   8  24
TORSDOF 9
ENDMDL
