MODEL 1
REMARK VINA RESULT:    -6.026      0.000      0.000
REMARK INTER + INTRA:          -9.196
REMARK INTER:                  -7.435
REMARK INTRA:                  -1.761
REMARK UNBOUND:                -1.761
REMARK  Name = /tmp/tmptlo5_y97/7YCE_candidate_0099.pdb
REMARK  4 active torsions:
REMARK  status: ('A' for Active; 'I' for Inactive)
REMARK    1  A    between atoms: N4_12  and  C19_28
REMARK    2  A    between atoms: C9_15  and  C13_20
REMARK    3  A    between atoms: C23_33  and  C24_34
REMARK    4  A    between atoms: C28_38  and  C29_40
REMARK                            x       y       z     vdW  Elec       q    Type
REMARK                         _______ _______ _______ _____ _____    ______ ____
ROOT
ATOM      1  C1  UNL     1     -20.303  23.694 -12.447  0.00  0.00    +0.023 C 
ATOM      2  C2  UNL     1     -19.809  25.120 -12.505  0.00  0.00    +0.094 C 
ATOM      3  C3  UNL     1     -19.901  25.762 -11.122  0.00  0.00    +0.113 C 
ATOM      4  N1  UNL     1     -18.709  26.441 -10.635  0.00  0.00    -0.273 N 
ATOM      5  C4  UNL     1     -17.399  25.980 -11.049  0.00  0.00    +0.115 C 
ATOM      6  C5  UNL     1     -17.413  24.905 -12.127  0.00  0.00    +0.114 C 
ATOM      7  N2  UNL     1     -18.470  25.151 -13.096  0.00  0.00    -0.291 N 
ATOM      8  C6  UNL     1     -18.295  25.896 -14.259  0.00  0.00    +0.139 A 
ATOM      9  N3  UNL     1     -19.336  26.487 -14.765  0.00  0.00    -0.177 NA
ATOM     10  C7  UNL     1     -19.280  27.259 -15.898  0.00  0.00    +0.356 A 
ATOM     11  O1  UNL     1     -20.309  27.788 -16.316  0.00  0.00    -0.244 OA
ATOM     12  N4  UNL     1     -18.052  27.449 -16.522  0.00  0.00    -0.242 N 
ATOM     13  C8  UNL     1     -16.892  26.789 -16.063  0.00  0.00    +0.154 A 
ATOM     14  N5  UNL     1     -15.726  26.893 -16.762  0.00  0.00    -0.225 NA
ATOM     15  C9  UNL     1     -14.635  26.202 -16.337  0.00  0.00    +0.115 A 
ATOM     16  C10 UNL     1     -14.678  25.403 -15.204  0.00  0.00    +0.158 A 
ATOM     17  C11 UNL     1     -15.865  25.299 -14.499  0.00  0.00    +0.037 A 
ATOM     18  C12 UNL     1     -16.983  26.004 -14.928  0.00  0.00    +0.069 A 
ATOM     19  F1  UNL     1     -13.596  24.742 -14.771  0.00  0.00    -0.203 F 
ATOM     20  C28 UNL     1     -18.751  27.461  -9.711  0.00  0.00    +0.249 C 
ATOM     21  O3  UNL     1     -17.743  27.996  -9.261  0.00  0.00    -0.270 OA
ENDROOT
BRANCH  15  22
ATOM     22  C13 UNL     1     -13.435  26.344 -17.160  0.00  0.00    +0.086 A 
ATOM     23  C14 UNL     1     -12.383  27.201 -16.813  0.00  0.00    +0.199 A 
ATOM     24  C15 UNL     1     -11.247  27.336 -17.610  0.00  0.00    +0.042 A 
ATOM     25  C16 UNL     1     -11.141  26.608 -18.789  0.00  0.00    +0.006 A 
ATOM     26  C17 UNL     1     -12.167  25.748 -19.164  0.00  0.00    +0.030 A 
ATOM     27  C18 UNL     1     -13.295  25.623 -18.354  0.00  0.00    +0.145 A 
ATOM     28  F2  UNL     1     -14.271  24.792 -18.753  0.00  0.00    -0.204 F 
ATOM     29  O2  UNL     1     -12.420  27.920 -15.651  0.00  0.00    -0.286 OA
ENDBRANCH  15  22
BRANCH  12  30
ATOM     30  C19 UNL     1     -17.950  28.212 -17.721  0.00  0.00    +0.079 A 
ATOM     31  C20 UNL     1     -18.175  27.621 -18.974  0.00  0.00    -0.003 A 
ATOM     32  C21 UNL     1     -18.071  28.389 -20.130  0.00  0.00    +0.018 A 
ATOM     33  C22 UNL     1     -17.746  29.727 -20.002  0.00  0.00    +0.098 A 
ATOM     34  N6  UNL     1     -17.517  30.339 -18.822  0.00  0.00    -0.247 NA
ATOM     35  C23 UNL     1     -17.605  29.577 -17.698  0.00  0.00    +0.074 A 
ATOM     36  C27 UNL     1     -18.468  26.168 -19.138  0.00  0.00    +0.033 C 
BRANCH  35  37
ATOM     37  C24 UNL     1     -17.391  30.286 -16.393  0.00  0.00    +0.042 C 
ATOM     38  C25 UNL     1     -18.247  31.528 -16.314  0.00  0.00    +0.006 C 
ATOM     39  C26 UNL     1     -15.938  30.640 -16.186  0.00  0.00    +0.006 C 
ENDBRANCH  35  37
ENDBRANCH  12  30
BRANCH  20  40
ATOM     40  C29 UNL     1     -20.120  27.856  -9.302  0.00  0.00    +0.058 C 
ATOM     41  C30 UNL     1     -20.450  29.144  -9.377  0.00  0.00    +0.005 C 
ENDBRANCH  20  40
TORSDOF 4
ENDMDL
