MODEL 1
REMARK VINA RESULT:    -6.089      0.000      0.000
REMARK INTER + INTRA:         -10.650
REMARK INTER:                  -8.580
REMARK INTRA:                  -2.069
REMARK UNBOUND:                -2.069
REMARK  Name = /tmp/tmpcn9ygbhw/7YCE_candidate_0100.pdb
REMARK  7 active torsions:
REMARK  status: ('A' for Active; 'I' for Inactive)
REMARK    1  A    between atoms: C5_6  and  C6_7
REMARK    2  A    between atoms: C6_7  and  O1_8
REMARK    3  A    between atoms: O1_8  and  C7_9
REMARK    4  A    between atoms: N3_15  and  C13_17
REMARK    5  A    between atoms: C26_34  and  C28_36
REMARK    6  A    between atoms: C28_36  and  C29_37
REMARK    7  A    between atoms: C30_39  and  C31_41
REMARK                            x       y       z     vdW  Elec       q    Type
REMARK                         _______ _______ _______ _____ _____    ______ ____
ROOT
ATOM      1  C7  UNL     1     -23.409  15.292  -9.775  0.00  0.00    +0.321 A 
ATOM      2  N2  UNL     1     -22.309  14.801  -9.191  0.00  0.00    -0.197 NA
ATOM      3  C8  UNL     1     -21.256  14.584 -10.002  0.00  0.00    +0.082 A 
ATOM      4  C9  UNL     1     -21.304  14.834 -11.365  0.00  0.00    +0.027 A 
ATOM      5  C10 UNL     1     -20.110  14.594 -12.227  0.00  0.00    +0.052 C 
ATOM      6  C11 UNL     1     -18.817  14.607 -11.434  0.00  0.00    +0.096 C 
ATOM      7  N3  UNL     1     -18.897  13.749 -10.254  0.00  0.00    -0.302 N 
ATOM      8  C12 UNL     1     -20.002  14.061  -9.344  0.00  0.00    +0.137 C 
ATOM      9  C23 UNL     1     -22.498  15.323 -11.876  0.00  0.00    +0.134 A 
ATOM     10  N4  UNL     1     -23.544  15.583 -11.073  0.00  0.00    -0.180 NA
ATOM     11  N5  UNL     1     -22.639  15.560 -13.265  0.00  0.00    -0.290 N 
ATOM     12  C24 UNL     1     -22.564  14.271 -13.966  0.00  0.00    +0.114 C 
ATOM     13  C25 UNL     1     -23.244  14.299 -15.328  0.00  0.00    +0.115 C 
ATOM     14  N6  UNL     1     -24.621  14.765 -15.280  0.00  0.00    -0.271 N 
ATOM     15  C26 UNL     1     -25.002  15.573 -14.132  0.00  0.00    +0.111 C 
ATOM     16  C27 UNL     1     -23.855  16.346 -13.499  0.00  0.00    +0.113 C 
ATOM     17  C30 UNL     1     -25.432  14.412 -16.340  0.00  0.00    +0.277 C 
ATOM     18  O2  UNL     1     -25.029  13.675 -17.238  0.00  0.00    -0.267 OA
ENDROOT
BRANCH   7  19
ATOM     19  C13 UNL     1     -18.706  12.384 -10.551  0.00  0.00    +0.049 A 
ATOM     20  C14 UNL     1     -19.848  11.578 -10.745  0.00  0.00    +0.015 A 
ATOM     21  C15 UNL     1     -19.767  10.260 -11.160  0.00  0.00    +0.001 A 
ATOM     22  C16 UNL     1     -18.519   9.712 -11.396  0.00  0.00    +0.000 A 
ATOM     23  C17 UNL     1     -17.362  10.448 -11.173  0.00  0.00    +0.002 A 
ATOM     24  C18 UNL     1     -17.398  11.795 -10.711  0.00  0.00    +0.024 A 
ATOM     25  C19 UNL     1     -16.115  12.370 -10.436  0.00  0.00    +0.059 A 
ATOM     26  C20 UNL     1     -14.924  11.677 -10.683  0.00  0.00    +0.011 A 
ATOM     27  C21 UNL     1     -14.945  10.390 -11.190  0.00  0.00    +0.001 A 
ATOM     28  C22 UNL     1     -16.167   9.777 -11.413  0.00  0.00    +0.000 A 
ATOM     29 CL1  UNL     1     -15.873  13.908  -9.679  0.00  0.00    -0.082 Cl
ENDBRANCH   7  19
BRANCH  17  30
ATOM     30  C31 UNL     1     -26.814  14.961 -16.377  0.00  0.00    +0.193 C 
ATOM     31  C32 UNL     1     -27.056  16.155 -16.917  0.00  0.00    +0.037 C 
ATOM     32  F1  UNL     1     -27.794  14.283 -15.746  0.00  0.00    -0.199 F 
ENDBRANCH  17  30
BRANCH   1  33
ATOM     33  O1  UNL     1     -24.540  15.519  -9.022  0.00  0.00    -0.445 OA
BRANCH  33  34
ATOM     34  C6  UNL     1     -24.913  14.309  -8.371  0.00  0.00    +0.224 C 
BRANCH  34  40
ATOM     35  C1  UNL     1     -23.985  11.571  -9.541  0.00  0.00    +0.090 C 
ATOM     36  N1  UNL     1     -25.284  11.948  -9.011  0.00  0.00    -0.270 NA
ATOM     37  C2  UNL     1     -26.286  11.194  -9.760  0.00  0.00    +0.072 C 
ATOM     38  C3  UNL     1     -27.514  12.083  -9.806  0.00  0.00    +0.019 C 
ATOM     39  C4  UNL     1     -27.034  13.461  -9.404  0.00  0.00    +0.021 C 
ATOM     40  C5  UNL     1     -25.525  13.343  -9.374  0.00  0.00    +0.102 C 
ENDBRANCH  34  40
ENDBRANCH  33  34
ENDBRANCH   1  33
BRANCH  15  41
ATOM     41  C28 UNL     1     -25.927  14.935 -13.115  0.00  0.00    +0.127 C 
BRANCH  41  42
ATOM     42  C29 UNL     1     -25.871  13.476 -13.079  0.00  0.00    +0.075 C 
ATOM     43  N7  UNL     1     -25.814  12.317 -13.060  0.00  0.00    -0.196 NA
ENDBRANCH  41  42
ENDBRANCH  15  41
TORSDOF 7
ENDMDL
