MODEL 1
REMARK VINA RESULT:    -5.619      0.000      0.000
REMARK INTER + INTRA:          -9.820
REMARK INTER:                  -7.590
REMARK INTRA:                  -2.231
REMARK UNBOUND:                -2.231
REMARK  Name = /tmp/tmpon4mztov/7YCE_candidate_0028.pdb
REMARK  6 active torsions:
REMARK  status: ('A' for Active; 'I' for Inactive)
REMARK    1  A    between atoms: C7_7  and  O13_64
REMARK    2  A    between atoms: C18_19  and  O12_59
REMARK    3  A    between atoms: C25_27  and  C35_44
REMARK    4  A    between atoms: C35_44  and  C37_46
REMARK    5  A    between atoms: C37_46  and  C38_47
REMARK    6  A    between atoms: C42_51  and  O9_53
REMARK                            x       y       z     vdW  Elec       q    Type
REMARK                         _______ _______ _______ _____ _____    ______ ____
ROOT
ATOM      1  C1  UNL     1     -25.472  19.509 -42.101  0.00  0.00    +0.006 C 
ATOM      2  C2  UNL     1     -26.870  18.954 -41.949  0.00  0.00    +0.062 C 
ATOM      3  C3  UNL     1     -26.782  17.617 -41.247  0.00  0.00    +0.008 C 
ATOM      4  C4  UNL     1     -27.722  16.604 -41.844  0.00  0.00    +0.030 C 
ATOM      5  C5  UNL     1     -27.550  16.519 -43.348  0.00  0.00    +0.121 C 
ATOM      6  C6  UNL     1     -28.693  15.792 -44.011  0.00  0.00    +0.063 C 
ATOM      7  C7  UNL     1     -28.803  14.379 -43.488  0.00  0.00    +0.136 C 
ATOM      8  C8  UNL     1     -30.195  13.895 -43.299  0.00  0.00    -0.017 C 
ATOM      9  C9  UNL     1     -30.687  13.848 -42.057  0.00  0.00    -0.006 C 
ATOM     10  C10 UNL     1     -32.016  13.461 -41.692  0.00  0.00    -0.001 C 
ATOM     11  C11 UNL     1     -32.468  13.649 -40.452  0.00  0.00    -0.000 C 
ATOM     12  C12 UNL     1     -33.802  13.303 -40.072  0.00  0.00    -0.005 C 
ATOM     13  C13 UNL     1     -34.324  13.710 -38.913  0.00  0.00    -0.026 C 
ATOM     14  C14 UNL     1     -35.719  13.396 -38.512  0.00  0.00    +0.022 C 
ATOM     15  C15 UNL     1     -36.584  14.639 -38.535  0.00  0.00    +0.012 C 
ATOM     16  C16 UNL     1     -36.964  15.028 -39.949  0.00  0.00    +0.061 C 
ATOM     17  C17 UNL     1     -37.443  16.460 -39.980  0.00  0.00    +0.180 C 
ATOM     18  O1  UNL     1     -38.215  16.916 -39.132  0.00  0.00    -0.293 OA
ATOM     19  C18 UNL     1     -36.985  17.321 -41.150  0.00  0.00    +0.206 C 
ATOM     20  C19 UNL     1     -35.517  17.706 -41.043  0.00  0.00    +0.204 C 
ATOM     21  C20 UNL     1     -35.223  18.666 -39.926  0.00  0.00    -0.015 C 
ATOM     22  C21 UNL     1     -34.445  18.365 -38.878  0.00  0.00    -0.025 C 
ATOM     23  C22 UNL     1     -34.105  19.267 -37.748  0.00  0.00    +0.079 C 
ATOM     24  C23 UNL     1     -32.625  19.585 -37.739  0.00  0.00    +0.158 C 
ATOM     25  O2  UNL     1     -31.750  18.719 -37.671  0.00  0.00    -0.296 OA
ATOM     26  C24 UNL     1     -32.254  21.040 -37.726  0.00  0.00    +0.108 C 
ATOM     27  C25 UNL     1     -32.930  21.767 -38.866  0.00  0.00    +0.176 C 
ATOM     28  O3  UNL     1     -31.938  22.246 -39.769  0.00  0.00    -0.451 OA
ATOM     29  C26 UNL     1     -32.134  21.751 -41.023  0.00  0.00    +0.335 C 
ATOM     30  O4  UNL     1     -33.068  21.028 -41.349  0.00  0.00    -0.248 OA
ATOM     31  C27 UNL     1     -31.041  22.257 -41.956  0.00  0.00    +0.175 C 
ATOM     32  C28 UNL     1     -31.566  23.435 -42.758  0.00  0.00    +0.031 C 
ATOM     33  C29 UNL     1     -32.445  23.010 -43.917  0.00  0.00    +0.004 C 
ATOM     34  C30 UNL     1     -31.744  21.979 -44.775  0.00  0.00    +0.022 C 
ATOM     35  C31 UNL     1     -31.303  20.787 -43.947  0.00  0.00    +0.094 C 
ATOM     36  N1  UNL     1     -30.507  21.207 -42.809  0.00  0.00    -0.265 N 
ATOM     37  C32 UNL     1     -29.561  20.369 -42.235  0.00  0.00    +0.289 C 
ATOM     38  O5  UNL     1     -29.020  20.598 -41.158  0.00  0.00    -0.267 OA
ATOM     39  C33 UNL     1     -29.172  19.113 -43.008  0.00  0.00    +0.279 C 
ATOM     40  O6  UNL     1     -30.060  18.356 -43.392  0.00  0.00    -0.281 OA
ATOM     41  C34 UNL     1     -27.666  18.924 -43.250  0.00  0.00    +0.279 C 
ATOM     42  O7  UNL     1     -27.325  17.763 -44.005  0.00  0.00    -0.329 OA
ATOM     43  O8  UNL     1     -27.327  20.080 -44.024  0.00  0.00    -0.187 OA
ATOM     44  C45 UNL     1     -34.485  18.626 -36.434  0.00  0.00    +0.012 C 
ATOM     45  C46 UNL     1     -35.833  20.018 -40.086  0.00  0.00    +0.029 C 
ATOM     46  O11 UNL     1     -34.665  16.579 -41.041  0.00  0.00    -0.216 OA
ATOM     47  C48 UNL     1     -38.072  14.139 -40.462  0.00  0.00    +0.008 C 
ATOM     48  C49 UNL     1     -35.713  12.816 -37.118  0.00  0.00    +0.005 C 
ATOM     49  C50 UNL     1     -30.998  13.551 -44.505  0.00  0.00    +0.029 C 
ENDROOT
BRANCH  27  50
ATOM     50  C35 UNL     1     -33.782  22.911 -38.339  0.00  0.00    +0.041 C 
ATOM     51  C36 UNL     1     -33.528  24.161 -39.153  0.00  0.00    +0.004 C 
BRANCH  50  52
ATOM     52  C37 UNL     1     -33.521  23.189 -36.872  0.00  0.00    +0.004 C 
BRANCH  52  53
ATOM     53  C38 UNL     1     -34.759  22.958 -36.037  0.00  0.00    +0.003 C 
ATOM     54  C39 UNL     1     -34.489  21.919 -34.970  0.00  0.00    +0.003 C 
ATOM     55  C40 UNL     1     -35.704  21.613 -34.118  0.00  0.00    +0.035 C 
ATOM     56  C41 UNL     1     -37.011  22.133 -34.681  0.00  0.00    +0.179 C 
ATOM     57  C42 UNL     1     -37.099  21.960 -36.191  0.00  0.00    +0.146 C 
ATOM     58  C43 UNL     1     -35.899  22.532 -36.937  0.00  0.00    +0.032 C 
ATOM     59  O10 UNL     1     -37.134  23.512 -34.354  0.00  0.00    -0.221 OA
BRANCH  57  60
ATOM     60  O9  UNL     1     -37.211  20.572 -36.501  0.00  0.00    -0.351 OA
ATOM     61  C44 UNL     1     -38.513  20.137 -36.133  0.00  0.00    +0.174 C 
ENDBRANCH  57  60
ENDBRANCH  52  53
ENDBRANCH  50  52
ENDBRANCH  27  50
BRANCH  19  62
ATOM     62  O12 UNL     1     -37.289  16.757 -42.413  0.00  0.00    -0.343 OA
ATOM     63  C47 UNL     1     -37.108  17.774 -43.391  0.00  0.00    +0.175 C 
ENDBRANCH  19  62
BRANCH   7  64
ATOM     64  O13 UNL     1     -27.951  13.440 -44.109  0.00  0.00    -0.349 OA
ATOM     65  C51 UNL     1     -27.104  12.798 -43.164  0.00  0.00    +0.174 C 
ENDBRANCH   7  64
TORSDOF 6
ENDMDL
