MODEL 1
REMARK VINA RESULT:    -7.482      0.000      0.000
REMARK INTER + INTRA:         -11.465
REMARK INTER:                  -9.670
REMARK INTRA:                  -1.795
REMARK UNBOUND:                -1.795
REMARK  Name = /tmp/tmp1l8rsjwy/7YCE_candidate_0001.pdb
REMARK  5 active torsions:
REMARK  status: ('A' for Active; 'I' for Inactive)
REMARK    1  A    between atoms: C2_2  and  C3_3
REMARK    2  A    between atoms: C11_11  and  C13_13
REMARK    3  A    between atoms: C18_19  and  O1_21
REMARK    4  A    between atoms: O1_21  and  C19_22
REMARK    5  A    between atoms: C19_22  and  C20_23
REMARK                            x       y       z     vdW  Elec       q    Type
REMARK                         _______ _______ _______ _____ _____    ______ ____
ROOT
ATOM      1  C13 UNL     1     -21.946  13.116 -12.676  0.00  0.00    +0.113 A 
ATOM      2  C14 UNL     1     -21.003  13.922 -12.067  0.00  0.00    +0.176 A 
ATOM      3  C15 UNL     1     -19.878  13.369 -11.475  0.00  0.00    +0.122 A 
ATOM      4  C16 UNL     1     -19.687  11.974 -11.489  0.00  0.00    +0.105 A 
ATOM      5  C17 UNL     1     -18.495  11.537 -10.839  0.00  0.00    +0.142 A 
ATOM      6  N1  UNL     1     -17.644  12.421 -10.274  0.00  0.00    -0.179 NA
ATOM      7  C18 UNL     1     -17.932  13.718 -10.355  0.00  0.00    +0.321 A 
ATOM      8  N2  UNL     1     -19.022  14.225 -10.913  0.00  0.00    -0.192 NA
ATOM      9  N4  UNL     1     -18.136  10.213 -10.630  0.00  0.00    -0.288 N 
ATOM     10  C27 UNL     1     -16.706  10.049 -10.316  0.00  0.00    +0.110 C 
ATOM     11  C28 UNL     1     -16.353   8.614  -9.900  0.00  0.00    +0.093 C 
ATOM     12  C29 UNL     1     -17.208   8.184  -8.717  0.00  0.00    +0.021 C 
ATOM     13  C30 UNL     1     -18.466   7.600  -9.345  0.00  0.00    +0.021 C 
ATOM     14  C31 UNL     1     -18.251   7.739 -10.848  0.00  0.00    +0.095 C 
ATOM     15  C32 UNL     1     -18.735   9.104 -11.372  0.00  0.00    +0.134 C 
ATOM     16  C33 UNL     1     -20.235   9.176 -11.261  0.00  0.00    +0.228 C 
ATOM     17  O2  UNL     1     -20.686   9.893 -12.390  0.00  0.00    -0.458 OA
ATOM     18  C34 UNL     1     -20.704  11.233 -12.156  0.00  0.00    +0.229 A 
ATOM     19  N5  UNL     1     -21.798  11.780 -12.735  0.00  0.00    -0.209 NA
ATOM     20  N6  UNL     1     -16.784   7.682 -10.957  0.00  0.00    -0.217 NA
ATOM     21  F2  UNL     1     -21.189  15.255 -12.044  0.00  0.00    -0.201 F 
ENDROOT
BRANCH   1  30
ATOM     22  C3  UNL     1     -24.822  13.162 -11.450  0.00  0.00    +0.005 A 
ATOM     23  C4  UNL     1     -26.160  13.192 -11.030  0.00  0.00    +0.136 A 
ATOM     24  C5  UNL     1     -27.166  13.698 -11.837  0.00  0.00    +0.029 A 
ATOM     25  C6  UNL     1     -26.833  14.186 -13.090  0.00  0.00    +0.002 A 
ATOM     26  C7  UNL     1     -25.517  14.162 -13.543  0.00  0.00    +0.003 A 
ATOM     27  C8  UNL     1     -25.295  14.675 -14.815  0.00  0.00    +0.042 A 
ATOM     28  C9  UNL     1     -24.017  14.687 -15.341  0.00  0.00    +0.196 A 
ATOM     29  C10 UNL     1     -22.953  14.184 -14.618  0.00  0.00    +0.044 A 
ATOM     30  C11 UNL     1     -23.141  13.651 -13.330  0.00  0.00    +0.023 A 
ATOM     31  C12 UNL     1     -24.456  13.638 -12.747  0.00  0.00    -0.000 A 
ATOM     32  O3  UNL     1     -23.806  15.194 -16.586  0.00  0.00    -0.287 OA
ATOM     33  F3  UNL     1     -26.485  12.725  -9.815  0.00  0.00    -0.205 F 
BRANCH  22  35
ATOM     34  C1  UNL     1     -23.465  13.627  -9.437  0.00  0.00    +0.005 C 
ATOM     35  C2  UNL     1     -23.834  12.594 -10.479  0.00  0.00    +0.029 C 
ENDBRANCH  22  35
ENDBRANCH   1  30
BRANCH   7  36
ATOM     36  O1  UNL     1     -17.097  14.640  -9.768  0.00  0.00    -0.445 OA
BRANCH  36  37
ATOM     37  C19 UNL     1     -16.186  13.941  -8.932  0.00  0.00    +0.223 C 
BRANCH  37  38
ATOM     38  C20 UNL     1     -14.733  14.263  -9.272  0.00  0.00    +0.089 C 
ATOM     39  C21 UNL     1     -14.666  15.681  -9.802  0.00  0.00    +0.020 C 
ATOM     40  C22 UNL     1     -13.507  16.346  -9.094  0.00  0.00    +0.019 C 
ATOM     41  C23 UNL     1     -12.822  15.245  -8.314  0.00  0.00    +0.072 C 
ATOM     42  N3  UNL     1     -13.857  14.237  -8.089  0.00  0.00    -0.269 NA
ATOM     43  C24 UNL     1     -13.178  12.932  -8.096  0.00  0.00    +0.108 C 
ATOM     44  C25 UNL     1     -13.495  12.229  -9.406  0.00  0.00    +0.178 C 
ATOM     45  C26 UNL     1     -14.138  13.289 -10.269  0.00  0.00    +0.055 C 
ATOM     46  F1  UNL     1     -12.335  11.840 -10.003  0.00  0.00    -0.236 F 
ENDBRANCH  37  38
ENDBRANCH  36  37
ENDBRANCH   7  36
TORSDOF 5
ENDMDL
