MODEL 1
REMARK VINA RESULT:    -6.490      0.000      0.000
REMARK INTER + INTRA:          -9.822
REMARK INTER:                  -8.767
REMARK INTRA:                  -1.055
REMARK UNBOUND:                -1.055
REMARK  Name = /tmp/tmpquo5qygw/7YCE_candidate_0078.pdb
REMARK  6 active torsions:
REMARK  status: ('A' for Active; 'I' for Inactive)
REMARK    1  A    between atoms: C2_3  and  C3_5
REMARK    2  A    between atoms: C6_9  and  O2_11
REMARK    3  A    between atoms: O2_11  and  C8_12
REMARK    4  A    between atoms: C11_15  and  N3_18
REMARK    5  A    between atoms: N4_21  and  C15_22
REMARK    6  A    between atoms: C17_24  and  C21_29
REMARK                            x       y       z     vdW  Elec       q    Type
REMARK                         _______ _______ _______ _____ _____    ______ ____
ROOT
ATOM      1  C8  UNL     1     -19.680   9.269 -10.243  0.00  0.00    +0.148 A 
ATOM      2  C9  UNL     1     -19.977   9.068 -11.588  0.00  0.00    +0.068 A 
ATOM      3  C10 UNL     1     -21.106   9.669 -12.138  0.00  0.00    +0.158 A 
ATOM      4  C11 UNL     1     -21.939  10.474 -11.358  0.00  0.00    +0.103 A 
ATOM      5  C12 UNL     1     -21.595  10.720 -10.028  0.00  0.00    +0.022 A 
ATOM      6  C13 UNL     1     -20.468  10.121  -9.469  0.00  0.00    +0.039 A 
ATOM      7  F4  UNL     1     -21.319   9.529 -13.454  0.00  0.00    -0.203 F 
ENDROOT
BRANCH   4   8
ATOM      8  N3  UNL     1     -23.085  11.120 -11.839  0.00  0.00    -0.158 NA
ATOM      9  C14 UNL     1     -23.124  12.373 -12.446  0.00  0.00    +0.348 C 
ATOM     10  O3  UNL     1     -22.143  12.958 -12.897  0.00  0.00    -0.248 OA
ATOM     11  N4  UNL     1     -24.435  12.835 -12.523  0.00  0.00    -0.161 NA
BRANCH  11  12
ATOM     12  C15 UNL     1     -24.860  14.049 -13.075  0.00  0.00    +0.075 A 
ATOM     13  C16 UNL     1     -24.881  14.144 -14.466  0.00  0.00    +0.021 A 
ATOM     14  C17 UNL     1     -25.293  15.318 -15.109  0.00  0.00    +0.083 A 
ATOM     15  C18 UNL     1     -25.687  16.404 -14.323  0.00  0.00    +0.062 A 
ATOM     16  C19 UNL     1     -25.670  16.312 -12.931  0.00  0.00    +0.013 A 
ATOM     17  C20 UNL     1     -25.257  15.138 -12.308  0.00  0.00    +0.018 A 
ATOM     18 CL1  UNL     1     -26.212  17.895 -15.004  0.00  0.00    -0.082 Cl
BRANCH  14  19
ATOM     19  C21 UNL     1     -25.294  15.361 -16.605  0.00  0.00    +0.419 C 
ATOM     20  F1  UNL     1     -24.791  14.229 -17.168  0.00  0.00    -0.166 F 
ATOM     21  F2  UNL     1     -26.543  15.505 -17.134  0.00  0.00    -0.166 F 
ATOM     22  F3  UNL     1     -24.568  16.398 -17.106  0.00  0.00    -0.166 F 
ENDBRANCH  14  19
ENDBRANCH  11  12
ENDBRANCH   4   8
BRANCH   1  23
ATOM     23  O2  UNL     1     -18.519   8.702  -9.770  0.00  0.00    -0.453 OA
BRANCH  23  28
ATOM     24  C3  UNL     1     -16.033  11.182 -10.614  0.00  0.00    +0.139 A 
ATOM     25  N2  UNL     1     -15.023  10.464 -11.176  0.00  0.00    -0.239 NA
ATOM     26  C4  UNL     1     -15.203   9.129 -11.253  0.00  0.00    +0.102 A 
ATOM     27  C5  UNL     1     -16.330   8.469 -10.794  0.00  0.00    +0.058 A 
ATOM     28  C6  UNL     1     -17.327   9.239 -10.199  0.00  0.00    +0.149 A 
ATOM     29  C7  UNL     1     -17.201  10.620 -10.123  0.00  0.00    +0.061 A 
BRANCH  24  32
ATOM     30  C1  UNL     1     -14.357  14.497 -10.021  0.00  0.00    +0.139 C 
ATOM     31  N1  UNL     1     -14.623  13.092 -10.147  0.00  0.00    -0.198 NA
ATOM     32  C2  UNL     1     -15.878  12.662 -10.517  0.00  0.00    +0.283 C 
ATOM     33  O1  UNL     1     -16.819  13.414 -10.755  0.00  0.00    -0.267 OA
ENDBRANCH  24  32
ENDBRANCH  23  28
ENDBRANCH   1  23
TORSDOF 6
ENDMDL
