MODEL 1
REMARK VINA RESULT:   -10.274      0.000      0.000
REMARK INTER + INTRA:          -0.668
REMARK INTER:                 -10.874
REMARK INTRA:                  10.207
REMARK UNBOUND:                10.207
REMARK  Name = /tmp/tmpgoedufb7/7YCE_candidate_0058.pdb
REMARK  5 active torsions:
REMARK  status: ('A' for Active; 'I' for Inactive)
REMARK    1  A    between atoms: C3_3  and  C21_38
REMARK    2  A    between atoms: C7_9  and  N4_21
REMARK    3  A    between atoms: C9_11  and  N1_16
REMARK    4  A    between atoms: C18_30  and  C19_32
REMARK    5  A    between atoms: C24_43  and  C36_60
REMARK                            x       y       z     vdW  Elec       q    Type
REMARK                         _______ _______ _______ _____ _____    ______ ____
ROOT
ATOM      1  C1  UNL     1     -20.902  11.558  -7.118  0.00  0.00    +0.035 C 
ATOM      2  C2  UNL     1     -21.241  11.389  -8.580  0.00  0.00    +0.157 C 
ATOM      3  C3  UNL     1     -20.239  10.566  -9.365  0.00  0.00    +0.240 C 
ATOM      4  C4  UNL     1     -19.391  11.624 -10.013  0.00  0.00    +0.226 C 
ATOM      5  C5  UNL     1     -20.399  12.737 -10.284  0.00  0.00    +0.289 C 
ATOM      6  O1  UNL     1     -21.299  12.704  -9.165  0.00  0.00    -0.317 OA
ATOM      7  O2  UNL     1     -21.129  12.453 -11.475  0.00  0.00    -0.315 OA
ATOM      8  C6  UNL     1     -21.870  13.620 -11.825  0.00  0.00    +0.177 C 
ATOM      9  C7  UNL     1     -23.340  13.227 -11.936  0.00  0.00    +0.168 C 
ATOM     10  C8  UNL     1     -23.932  13.545 -13.302  0.00  0.00    +0.200 C 
ATOM     11  C9  UNL     1     -23.680  14.990 -13.709  0.00  0.00    +0.149 C 
ATOM     12  C10 UNL     1     -22.211  15.373 -13.593  0.00  0.00    +0.207 C 
ATOM     13  C11 UNL     1     -21.337  14.231 -13.108  0.00  0.00    +0.213 C 
ATOM     14  O3  UNL     1     -19.994  14.665 -12.935  0.00  0.00    -0.218 OA
ATOM     15  O4  UNL     1     -22.116  16.502 -12.735  0.00  0.00    -0.218 OA
ATOM     16  O5  UNL     1     -25.323  13.244 -13.328  0.00  0.00    -0.219 OA
ATOM     17  O6  UNL     1     -18.652  11.223 -11.153  0.00  0.00    -0.322 OA
ATOM     18  C14 UNL     1     -17.266  11.148 -10.876  0.00  0.00    +0.254 C 
ATOM     19  C15 UNL     1     -16.568  12.468 -10.512  0.00  0.00    +0.150 C 
ATOM     20  C16 UNL     1     -15.075  12.156 -10.550  0.00  0.00    +0.194 C 
ATOM     21  C17 UNL     1     -14.700  10.967  -9.685  0.00  0.00    +0.203 C 
ATOM     22  C18 UNL     1     -15.563   9.770 -10.073  0.00  0.00    +0.185 C 
ATOM     23  O7  UNL     1     -16.952  10.095  -9.984  0.00  0.00    -0.326 OA
ATOM     24  O9  UNL     1     -13.329  10.656  -9.891  0.00  0.00    -0.216 OA
ATOM     25  O10 UNL     1     -14.294  13.295 -10.242  0.00  0.00    -0.217 OA
ATOM     26  N7  UNL     1     -16.995  12.971  -9.194  0.00  0.00    -0.256 NA
ATOM     27  C20 UNL     1     -16.881  14.424  -9.206  0.00  0.00    +0.090 C 
ATOM     28  O12 UNL     1     -19.484   9.688  -8.563  0.00  0.00    -0.212 OA
ATOM     29  C22 UNL     1     -23.108  14.161 -14.146  0.00  0.00    +0.040 C 
ATOM     30  C23 UNL     1     -23.673  13.628 -12.846  0.00  0.00    +0.070 C 
ATOM     31  C24 UNL     1     -23.283  14.548 -11.691  0.00  0.00    +0.189 C 
ATOM     32  N8  UNL     1     -22.039  14.053 -11.129  0.00  0.00    -0.260 N 
ATOM     33  C25 UNL     1     -21.824  12.594 -11.187  0.00  0.00    +0.151 C 
ATOM     34  S1  UNL     1     -22.907  11.996 -12.562  0.00  0.00    -0.118 S 
ATOM     35  C26 UNL     1     -20.385  12.879 -11.679  0.00  0.00    +0.184 C 
ATOM     36  C27 UNL     1     -20.866  14.341 -11.767  0.00  0.00    +0.247 C 
ATOM     37  O13 UNL     1     -20.491  15.372 -12.276  0.00  0.00    -0.273 OA
ATOM     38  N9  UNL     1     -19.308  12.644 -10.709  0.00  0.00    -0.226 N 
ATOM     39  C28 UNL     1     -19.267  11.543  -9.885  0.00  0.00    +0.248 C 
ATOM     40  O14 UNL     1     -20.134  10.677  -9.847  0.00  0.00    -0.273 OA
ATOM     41  C29 UNL     1     -18.044  11.529  -9.009  0.00  0.00    +0.158 C 
ATOM     42  C30 UNL     1     -16.885  10.831  -9.642  0.00  0.00    -0.001 A 
ATOM     43  C31 UNL     1     -15.922  11.570 -10.333  0.00  0.00    +0.005 A 
ATOM     44  C32 UNL     1     -14.835  10.925 -10.919  0.00  0.00    +0.008 A 
ATOM     45  C33 UNL     1     -14.705   9.542 -10.816  0.00  0.00    -0.002 A 
ATOM     46  C34 UNL     1     -15.660   8.802 -10.121  0.00  0.00    -0.001 A 
ATOM     47  C35 UNL     1     -16.751   9.447  -9.538  0.00  0.00    -0.003 A 
ATOM     48  C37 UNL     1     -25.157  13.412 -13.025  0.00  0.00    +0.013 C 
ENDROOT
BRANCH  11  49
ATOM     49  N1  UNL     1     -24.110  15.208 -15.096  0.00  0.00    -0.232 NA
ATOM     50  C12 UNL     1     -24.860  16.273 -15.219  0.00  0.00    +0.284 C 
ATOM     51  N2  UNL     1     -25.387  16.641 -16.443  0.00  0.00    -0.104 NA
ATOM     52  N3  UNL     1     -25.218  17.157 -14.214  0.00  0.00    -0.104 NA
ENDBRANCH  11  49
BRANCH   9  53
ATOM     53  N4  UNL     1     -24.076  13.906 -10.862  0.00  0.00    -0.230 NA
ATOM     54  C13 UNL     1     -24.630  13.062 -10.034  0.00  0.00    +0.284 C 
ATOM     55  N5  UNL     1     -25.356  13.496  -8.944  0.00  0.00    -0.104 NA
ATOM     56  N6  UNL     1     -24.583  11.678 -10.104  0.00  0.00    -0.104 NA
ENDBRANCH   9  53
BRANCH  31  57
ATOM     57  C36 UNL     1     -24.340  14.631 -10.605  0.00  0.00    +0.383 C 
ATOM     58  O15 UNL     1     -25.550  14.618 -10.765  0.00  0.00    -0.244 OA
ATOM     59  O16 UNL     1     -23.743  14.768  -9.390  0.00  0.00    -0.244 OA
ENDBRANCH  31  57
BRANCH  22  60
ATOM     60  C19 UNL     1     -15.311   8.572  -9.175  0.00  0.00    +0.214 C 
ATOM     61  O8  UNL     1     -14.791   9.005  -7.930  0.00  0.00    -0.218 OA
ENDBRANCH  22  60
BRANCH   3  62
ATOM     62  C21 UNL     1     -20.983   9.753 -10.389  0.00  0.00    +0.242 C 
ATOM     63  O11 UNL     1     -20.592   8.706 -10.888  0.00  0.00    -0.285 OA
ENDBRANCH   3  62
TORSDOF 5
ENDMDL
