MODEL 1
REMARK VINA RESULT:    -5.913      0.000      0.000
REMARK INTER + INTRA:          -7.942
REMARK INTER:                  -7.641
REMARK INTRA:                  -0.301
REMARK UNBOUND:                -0.301
REMARK  Name = /tmp/tmpxngpaef9/7YCE_candidate_0083.pdb
REMARK  5 active torsions:
REMARK  status: ('A' for Active; 'I' for Inactive)
REMARK    1  A    between atoms: C4_4  and  C6_6
REMARK    2  A    between atoms: C6_6  and  C7_7
REMARK    3  A    between atoms: C6_6  and  N2_10
REMARK    4  A    between atoms: C7_7  and  C8_8
REMARK    5  A    between atoms: C10_12  and  C12_15
REMARK                            x       y       z     vdW  Elec       q    Type
REMARK                         _______ _______ _______ _____ _____    ______ ____
ROOT
ATOM      1  N2  UNL     1     -15.812  -3.193 -16.255  0.00  0.00    -0.250 N 
ATOM      2  C9  UNL     1     -14.554  -3.162 -16.780  0.00  0.00    +0.098 A 
ATOM      3  C10 UNL     1     -13.693  -3.299 -15.712  0.00  0.00    +0.057 A 
ATOM      4  C11 UNL     1     -14.550  -3.425 -14.595  0.00  0.00    +0.123 A 
ATOM      5  N3  UNL     1     -15.845  -3.371 -14.929  0.00  0.00    -0.168 NA
ENDROOT
BRANCH   3   6
ATOM      6  C12 UNL     1     -12.254  -3.313 -15.767  0.00  0.00    +0.089 A 
ATOM      7  C13 UNL     1     -11.446  -2.595 -14.879  0.00  0.00    +0.055 A 
ATOM      8  C14 UNL     1     -11.620  -1.722 -13.772  0.00  0.00    +0.025 A 
ATOM      9  C15 UNL     1     -10.374  -1.345 -13.326  0.00  0.00    +0.101 A 
ATOM     10  N4  UNL     1      -9.450  -1.959 -14.123  0.00  0.00    -0.225 NA
ATOM     11  C16 UNL     1     -10.076  -2.720 -15.069  0.00  0.00    +0.166 A 
ATOM     12  N5  UNL     1      -9.459  -3.453 -16.011  0.00  0.00    -0.205 NA
ATOM     13  C17 UNL     1     -10.333  -4.096 -16.800  0.00  0.00    +0.200 A 
ATOM     14  N6  UNL     1     -11.677  -4.068 -16.732  0.00  0.00    -0.224 NA
ENDBRANCH   3   6
BRANCH   1  15
ATOM     15  C6  UNL     1     -17.065  -3.102 -16.978  0.00  0.00    +0.120 C 
BRANCH  15  19
ATOM     16  C1  UNL     1     -20.653  -3.596 -15.986  0.00  0.00    +0.000 C 
ATOM     17  C2  UNL     1     -20.028  -4.919 -15.576  0.00  0.00    +0.000 C 
ATOM     18  C3  UNL     1     -18.573  -4.853 -15.994  0.00  0.00    +0.002 C 
ATOM     19  C4  UNL     1     -18.264  -3.372 -16.084  0.00  0.00    +0.024 C 
ATOM     20  C5  UNL     1     -19.548  -2.786 -16.634  0.00  0.00    +0.002 C 
ENDBRANCH  15  19
BRANCH  15  21
ATOM     21  C7  UNL     1     -17.133  -1.750 -17.647  0.00  0.00    +0.130 C 
BRANCH  21  22
ATOM     22  C8  UNL     1     -16.888  -0.689 -16.678  0.00  0.00    +0.075 C 
ATOM     23  N1  UNL     1     -16.722   0.155 -15.900  0.00  0.00    -0.196 NA
ENDBRANCH  21  22
ENDBRANCH  15  21
ENDBRANCH   1  15
TORSDOF 5
ENDMDL
