MODEL 1
REMARK VINA RESULT:    -7.202      0.000      0.000
REMARK INTER + INTRA:          -9.804
REMARK INTER:                  -8.886
REMARK INTRA:                  -0.918
REMARK UNBOUND:                -0.918
REMARK  Name = /tmp/tmpv6hiirfs/7YCE_candidate_0089.pdb
REMARK  4 active torsions:
REMARK  status: ('A' for Active; 'I' for Inactive)
REMARK    1  A    between atoms: C7_10  and  O2_12
REMARK    2  A    between atoms: O2_12  and  C9_13
REMARK    3  A    between atoms: C17_22  and  N3_23
REMARK    4  A    between atoms: N4_26  and  C19_27
REMARK                            x       y       z     vdW  Elec       q    Type
REMARK                         _______ _______ _______ _____ _____    ______ ____
ROOT
ATOM      1  C9  UNL     1     -17.656  14.268  -9.670  0.00  0.00    +0.145 A 
ATOM      2  C10 UNL     1     -18.283  13.966 -10.883  0.00  0.00    +0.036 A 
ATOM      3  C11 UNL     1     -18.978  14.971 -11.533  0.00  0.00    +0.020 A 
ATOM      4  C12 UNL     1     -19.048  16.248 -10.960  0.00  0.00    +0.135 A 
ATOM      5  C13 UNL     1     -18.461  16.564  -9.751  0.00  0.00    +0.040 A 
ATOM      6  C14 UNL     1     -17.764  15.549  -9.099  0.00  0.00    +0.041 A 
ATOM      7  O3  UNL     1     -19.790  17.139 -11.718  0.00  0.00    -0.477 OA
ATOM      8  C15 UNL     1     -20.156  16.412 -12.950  0.00  0.00    +0.192 C 
ATOM      9  C16 UNL     1     -19.720  14.954 -12.815  0.00  0.00    +0.091 C 
ATOM     10  C17 UNL     1     -21.181  15.318 -12.838  0.00  0.00    +0.145 C 
ENDROOT
BRANCH  10  11
ATOM     11  N3  UNL     1     -22.008  14.964 -13.935  0.00  0.00    -0.185 NA
ATOM     12  C18 UNL     1     -23.391  15.008 -13.845  0.00  0.00    +0.344 C 
ATOM     13  O4  UNL     1     -23.991  15.319 -12.820  0.00  0.00    -0.249 OA
ATOM     14  N4  UNL     1     -23.987  14.597 -15.031  0.00  0.00    -0.159 NA
BRANCH  14  15
ATOM     15  C19 UNL     1     -25.336  14.756 -15.374  0.00  0.00    +0.105 A 
ATOM     16  C20 UNL     1     -26.229  13.827 -14.837  0.00  0.00    +0.051 A 
ATOM     17  C21 UNL     1     -27.583  13.917 -15.141  0.00  0.00    +0.169 A 
ATOM     18  C22 UNL     1     -28.050  14.914 -15.989  0.00  0.00    +0.170 A 
ATOM     19  C23 UNL     1     -27.169  15.824 -16.558  0.00  0.00    +0.063 A 
ATOM     20  C24 UNL     1     -25.813  15.736 -16.251  0.00  0.00    +0.158 A 
ATOM     21  F1  UNL     1     -24.969  16.557 -16.889  0.00  0.00    -0.203 F 
ATOM     22  F2  UNL     1     -29.356  14.992 -16.277  0.00  0.00    -0.202 F 
ATOM     23  F3  UNL     1     -28.435  13.029 -14.610  0.00  0.00    -0.202 F 
ENDBRANCH  14  15
ENDBRANCH  10  11
BRANCH   1  24
ATOM     24  O2  UNL     1     -17.031  13.221  -9.028  0.00  0.00    -0.454 OA
BRANCH  24  34
ATOM     25  C1  UNL     1     -17.761  10.546  -9.603  0.00  0.00    +0.042 C 
ATOM     26  C2  UNL     1     -18.272   9.536 -10.601  0.00  0.00    +0.092 C 
ATOM     27  C3  UNL     1     -17.191   8.558 -10.980  0.00  0.00    +0.247 C 
ATOM     28  O1  UNL     1     -17.445   7.362 -11.113  0.00  0.00    -0.273 OA
ATOM     29  N1  UNL     1     -15.954   9.109 -11.214  0.00  0.00    -0.161 NA
ATOM     30  C4  UNL     1     -15.619  10.428 -10.882  0.00  0.00    +0.153 A 
ATOM     31  N2  UNL     1     -14.446  10.917 -11.330  0.00  0.00    -0.227 NA
ATOM     32  C5  UNL     1     -14.144  12.194 -11.005  0.00  0.00    +0.103 A 
ATOM     33  C6  UNL     1     -14.955  13.013 -10.240  0.00  0.00    +0.058 A 
ATOM     34  C7  UNL     1     -16.140  12.468  -9.758  0.00  0.00    +0.146 A 
ATOM     35  C8  UNL     1     -16.497  11.166 -10.095  0.00  0.00    +0.046 A 
ENDBRANCH  24  34
ENDBRANCH   1  24
TORSDOF 4
ENDMDL
