MODEL 1
REMARK VINA RESULT:    -6.112      0.000      0.000
REMARK INTER + INTRA:          -8.774
REMARK INTER:                  -7.898
REMARK INTRA:                  -0.875
REMARK UNBOUND:                -0.875
REMARK  Name = /tmp/tmpo0i9gnct/7YCE_candidate_0075.pdb
REMARK  5 active torsions:
REMARK  status: ('A' for Active; 'I' for Inactive)
REMARK    1  A    between atoms: C3_3  and  C20_26
REMARK    2  A    between atoms: C7_8  and  O2_11
REMARK    3  A    between atoms: O2_11  and  C10_12
REMARK    4  A    between atoms: C14_18  and  O4_24
REMARK    5  A    between atoms: C15_19  and  O3_22
REMARK                            x       y       z     vdW  Elec       q    Type
REMARK                         _______ _______ _______ _____ _____    ______ ____
ROOT
ATOM      1  O2  UNL     1     -13.697  -3.578 -17.794  0.00  0.00    -0.436 OA
ENDROOT
BRANCH   1   9
ATOM      2  C1  UNL     1     -10.169  -0.465 -12.361  0.00  0.00    +0.073 C 
ATOM      3  C2  UNL     1     -10.434  -1.379 -13.487  0.00  0.00    +0.128 A 
ATOM      4  C3  UNL     1      -9.700  -2.372 -14.115  0.00  0.00    +0.088 A 
ATOM      5  C4  UNL     1     -10.556  -2.876 -15.150  0.00  0.00    +0.042 A 
ATOM      6  C5  UNL     1     -11.739  -2.153 -15.066  0.00  0.00    +0.148 A 
ATOM      7  O1  UNL     1     -11.660  -1.242 -14.059  0.00  0.00    -0.457 OA
ATOM      8  C6  UNL     1     -12.841  -2.334 -15.900  0.00  0.00    +0.075 A 
ATOM      9  C7  UNL     1     -12.711  -3.346 -16.860  0.00  0.00    +0.150 A 
ATOM     10  C8  UNL     1     -11.533  -4.078 -17.002  0.00  0.00    +0.038 A 
ATOM     11  C9  UNL     1     -10.449  -3.863 -16.145  0.00  0.00    +0.006 A 
BRANCH   4  12
ATOM     12  C20 UNL     1      -8.350  -2.820 -13.806  0.00  0.00    +0.268 C 
ATOM     13  O5  UNL     1      -8.121  -3.872 -13.215  0.00  0.00    -0.268 OA
ATOM     14  N3  UNL     1      -7.353  -1.968 -14.230  0.00  0.00    -0.200 NA
ATOM     15  C21 UNL     1      -5.980  -2.307 -13.976  0.00  0.00    +0.139 C 
ENDBRANCH   4  12
ENDBRANCH   1   9
BRANCH   1  16
ATOM     16  C10 UNL     1     -14.692  -4.485 -17.442  0.00  0.00    +0.233 A 
ATOM     17  N1  UNL     1     -14.402  -5.799 -17.457  0.00  0.00    -0.189 NA
ATOM     18  C11 UNL     1     -15.415  -6.614 -17.150  0.00  0.00    +0.202 A 
ATOM     19  N2  UNL     1     -16.668  -6.234 -16.854  0.00  0.00    -0.224 NA
ATOM     20  C12 UNL     1     -16.929  -4.922 -16.870  0.00  0.00    +0.091 A 
ATOM     21  C13 UNL     1     -18.207  -4.465 -16.583  0.00  0.00    +0.059 A 
ATOM     22  C14 UNL     1     -18.541  -3.107 -16.588  0.00  0.00    +0.174 A 
ATOM     23  C15 UNL     1     -17.558  -2.162 -16.892  0.00  0.00    +0.173 A 
ATOM     24  C16 UNL     1     -16.269  -2.602 -17.182  0.00  0.00    +0.046 A 
ATOM     25  C17 UNL     1     -15.955  -3.972 -17.170  0.00  0.00    +0.074 A 
BRANCH  23  26
ATOM     26  O3  UNL     1     -17.913  -0.839 -16.889  0.00  0.00    -0.468 OA
ATOM     27  C18 UNL     1     -16.991  -0.045 -16.153  0.00  0.00    +0.253 C 
ENDBRANCH  23  26
BRANCH  22  28
ATOM     28  O4  UNL     1     -19.803  -2.649 -16.305  0.00  0.00    -0.468 OA
ATOM     29  C19 UNL     1     -20.720  -3.718 -16.106  0.00  0.00    +0.253 C 
ENDBRANCH  22  28
ENDBRANCH   1  16
TORSDOF 5
ENDMDL
