MODEL 1
REMARK VINA RESULT:    -6.762      0.000      0.000
REMARK INTER + INTRA:          -8.328
REMARK INTER:                  -7.553
REMARK INTRA:                  -0.775
REMARK UNBOUND:                -0.775
REMARK  Name = /tmp/tmpm_7rc5td/7YCE_candidate_0012.pdb
REMARK  2 active torsions:
REMARK  status: ('A' for Active; 'I' for Inactive)
REMARK    1  A    between atoms: C9_12  and  C10_14
REMARK    2  A    between atoms: C22_28  and  C24_32
REMARK                            x       y       z     vdW  Elec       q    Type
REMARK                         _______ _______ _______ _____ _____    ______ ____
ROOT
ATOM      1  C10 UNL     1     -15.109  27.684 -17.956  0.00  0.00    +0.136 A 
ATOM      2  N5  UNL     1     -14.246  28.616 -17.501  0.00  0.00    -0.076 NA
ATOM      3  O1  UNL     1     -13.026  27.990 -17.327  0.00  0.00    -0.358 OA
ATOM      4  C11 UNL     1     -13.152  26.693 -17.676  0.00  0.00    +0.153 A 
ATOM      5  C12 UNL     1     -14.434  26.439 -18.090  0.00  0.00    +0.033 A 
ATOM      6  C13 UNL     1     -14.855  25.103 -18.552  0.00  0.00    +0.031 C 
ATOM      7  C14 UNL     1     -13.637  24.275 -18.958  0.00  0.00    +0.006 C 
ATOM      8  C15 UNL     1     -12.497  24.340 -17.941  0.00  0.00    +0.012 C 
ATOM      9  C16 UNL     1     -11.995  25.760 -17.598  0.00  0.00    +0.073 C 
ATOM     10  C17 UNL     1     -10.963  26.127 -18.673  0.00  0.00    +0.012 C 
ATOM     11  C18 UNL     1      -9.997  27.225 -18.254  0.00  0.00    +0.006 C 
ATOM     12  C19 UNL     1      -9.199  26.835 -17.020  0.00  0.00    +0.033 C 
ATOM     13  C20 UNL     1     -10.099  26.251 -15.991  0.00  0.00    +0.006 A 
ATOM     14  C21 UNL     1     -11.368  25.753 -16.217  0.00  0.00    -0.002 A 
ATOM     15  C22 UNL     1     -11.956  25.299 -14.981  0.00  0.00    +0.088 A 
ATOM     16  C23 UNL     1     -11.109  25.452 -13.899  0.00  0.00    +0.127 A 
ATOM     17  S1  UNL     1      -9.616  26.150 -14.371  0.00  0.00    -0.073 S 
ATOM     18  N6  UNL     1     -11.347  25.120 -12.604  0.00  0.00    -0.120 NA
ENDROOT
BRANCH   1  30
ATOM     19  C1  UNL     1     -21.561  29.204 -17.350  0.00  0.00    +0.023 C 
ATOM     20  C2  UNL     1     -20.981  27.988 -16.684  0.00  0.00    +0.093 C 
ATOM     21  C3  UNL     1     -21.356  26.663 -17.323  0.00  0.00    +0.108 C 
ATOM     22  N1  UNL     1     -20.828  25.486 -16.628  0.00  0.00    -0.215 NA
ATOM     23  C4  UNL     1     -20.136  25.846 -15.390  0.00  0.00    +0.110 C 
ATOM     24  C5  UNL     1     -19.116  26.982 -15.494  0.00  0.00    +0.112 C 
ATOM     25  N2  UNL     1     -19.567  28.075 -16.356  0.00  0.00    -0.277 N 
ATOM     26  C6  UNL     1     -18.677  28.165 -17.431  0.00  0.00    +0.220 A 
ATOM     27  N3  UNL     1     -19.126  28.542 -18.635  0.00  0.00    -0.212 NA
ATOM     28  C7  UNL     1     -18.227  28.637 -19.630  0.00  0.00    +0.103 A 
ATOM     29  C8  UNL     1     -16.889  28.379 -19.498  0.00  0.00    +0.042 A 
ATOM     30  C9  UNL     1     -16.511  28.000 -18.234  0.00  0.00    +0.106 A 
ATOM     31  N4  UNL     1     -17.383  27.895 -17.205  0.00  0.00    -0.212 NA
ENDBRANCH   1  30
BRANCH  15  32
ATOM     32  C24 UNL     1     -13.273  24.745 -14.858  0.00  0.00    +0.102 C 
ATOM     33  N7  UNL     1     -14.345  24.323 -14.707  0.00  0.00    -0.191 NA
ENDBRANCH  15  32
TORSDOF 2
ENDMDL
