MODEL 1
REMARK VINA RESULT:    -6.941      0.000      0.000
REMARK INTER + INTRA:         -10.461
REMARK INTER:                  -9.376
REMARK INTRA:                  -1.085
REMARK UNBOUND:                -1.085
REMARK  Name = /tmp/tmpmrsgt_e5/7YCE_candidate_0025.pdb
REMARK  6 active torsions:
REMARK  status: ('A' for Active; 'I' for Inactive)
REMARK    1  A    between atoms: C7_10  and  O1_32
REMARK    2  A    between atoms: C10_14  and  C14_19
REMARK    3  A    between atoms: C15_20  and  C20_27
REMARK    4  A    between atoms: O1_32  and  C21_33
REMARK    5  A    between atoms: C21_33  and  C22_34
REMARK    6  A    between atoms: C27_40  and  C28_42
REMARK                            x       y       z     vdW  Elec       q    Type
REMARK                         _______ _______ _______ _____ _____    ______ ____
ROOT
ATOM      1  C1  UNL     1     -21.778  27.673 -18.372  0.00  0.00    +0.023 C 
ATOM      2  C2  UNL     1     -21.084  27.459 -17.049  0.00  0.00    +0.094 C 
ATOM      3  C3  UNL     1     -21.839  28.160 -15.922  0.00  0.00    +0.113 C 
ATOM      4  N1  UNL     1     -22.977  27.422 -15.417  0.00  0.00    -0.273 N 
ATOM      5  C4  UNL     1     -22.796  25.994 -15.211  0.00  0.00    +0.115 C 
ATOM      6  C5  UNL     1     -22.087  25.309 -16.379  0.00  0.00    +0.114 C 
ATOM      7  N2  UNL     1     -20.884  26.026 -16.815  0.00  0.00    -0.291 N 
ATOM      8  C6  UNL     1     -19.758  25.736 -16.021  0.00  0.00    +0.138 A 
ATOM      9  N3  UNL     1     -19.947  24.984 -14.923  0.00  0.00    -0.179 NA
ATOM     10  C7  UNL     1     -18.881  24.711 -14.167  0.00  0.00    +0.321 A 
ATOM     11  N4  UNL     1     -17.630  25.111 -14.416  0.00  0.00    -0.192 NA
ATOM     12  C8  UNL     1     -17.427  25.834 -15.524  0.00  0.00    +0.116 A 
ATOM     13  C9  UNL     1     -16.139  26.262 -15.859  0.00  0.00    +0.160 A 
ATOM     14  C10 UNL     1     -15.845  27.015 -17.009  0.00  0.00    +0.057 A 
ATOM     15  C11 UNL     1     -16.909  27.340 -17.853  0.00  0.00    +0.061 A 
ATOM     16  C12 UNL     1     -18.199  26.926 -17.540  0.00  0.00    +0.016 A 
ATOM     17  C13 UNL     1     -18.475  26.183 -16.379  0.00  0.00    +0.053 A 
ATOM     18 CL1  UNL     1     -16.714  28.296 -19.275  0.00  0.00    -0.082 Cl
ATOM     19  F4  UNL     1     -15.124  25.948 -15.033  0.00  0.00    -0.203 F 
ATOM     20  C27 UNL     1     -23.945  28.148 -14.757  0.00  0.00    +0.249 C 
ATOM     21  O2  UNL     1     -23.968  29.374 -14.739  0.00  0.00    -0.270 OA
ENDROOT
BRANCH  14  22
ATOM     22  C14 UNL     1     -14.460  27.398 -17.296  0.00  0.00    +0.089 A 
ATOM     23  C15 UNL     1     -13.574  26.652 -18.081  0.00  0.00    +0.085 A 
ATOM     24  C16 UNL     1     -12.299  27.199 -18.300  0.00  0.00    -0.014 A 
ATOM     25  C17 UNL     1     -11.949  28.414 -17.717  0.00  0.00    +0.033 A 
ATOM     26  C18 UNL     1     -12.878  29.081 -16.932  0.00  0.00    +0.169 A 
ATOM     27  N5  UNL     1     -14.121  28.587 -16.727  0.00  0.00    -0.227 NA
ATOM     28  N6  UNL     1     -12.495  30.309 -16.351  0.00  0.00    -0.107 NA
ATOM     29  C19 UNL     1     -11.276  26.533 -19.161  0.00  0.00    +0.031 C 
BRANCH  23  30
ATOM     30  C20 UNL     1     -13.989  25.348 -18.705  0.00  0.00    +0.420 C 
ATOM     31  F1  UNL     1     -15.341  25.183 -18.768  0.00  0.00    -0.166 F 
ATOM     32  F2  UNL     1     -13.558  25.184 -19.988  0.00  0.00    -0.166 F 
ATOM     33  F3  UNL     1     -13.518  24.274 -18.015  0.00  0.00    -0.166 F 
ENDBRANCH  23  30
ENDBRANCH  14  22
BRANCH  20  34
ATOM     34  C28 UNL     1     -24.973  27.319 -14.081  0.00  0.00    +0.058 C 
ATOM     35  C29 UNL     1     -25.240  27.574 -12.799  0.00  0.00    +0.005 C 
ENDBRANCH  20  34
BRANCH  10  36
ATOM     36  O1  UNL     1     -19.149  23.948 -13.054  0.00  0.00    -0.445 OA
BRANCH  36  37
ATOM     37  C21 UNL     1     -20.542  24.005 -12.780  0.00  0.00    +0.224 C 
BRANCH  37  38
ATOM     38  C22 UNL     1     -21.080  22.605 -12.506  0.00  0.00    +0.102 C 
ATOM     39  C23 UNL     1     -22.215  22.344 -13.479  0.00  0.00    +0.021 C 
ATOM     40  C24 UNL     1     -23.492  22.637 -12.714  0.00  0.00    +0.019 C 
ATOM     41  C25 UNL     1     -23.050  22.961 -11.302  0.00  0.00    +0.072 C 
ATOM     42  N7  UNL     1     -21.720  22.377 -11.207  0.00  0.00    -0.270 NA
ATOM     43  C26 UNL     1     -21.003  23.022 -10.125  0.00  0.00    +0.090 C 
ENDBRANCH  37  38
ENDBRANCH  36  37
ENDBRANCH  10  36
TORSDOF 6
ENDMDL
