MODEL 1
REMARK VINA RESULT:    -6.779      0.000      0.000
REMARK INTER + INTRA:         -11.086
REMARK INTER:                  -9.554
REMARK INTRA:                  -1.532
REMARK UNBOUND:                -1.532
REMARK  Name = /tmp/tmpbgsbtgb9/7YCE_candidate_0027.pdb
REMARK  7 active torsions:
REMARK  status: ('A' for Active; 'I' for Inactive)
REMARK    1  A    between atoms: C4_5  and  N2_8
REMARK    2  A    between atoms: C7_9  and  C8_11
REMARK    3  A    between atoms: C10_13  and  O4_41
REMARK    4  A    between atoms: C11_14  and  N3_18
REMARK    5  A    between atoms: C16_22  and  C27_37
REMARK    6  A    between atoms: C17_23  and  O2_25
REMARK    7  A    between atoms: O2_25  and  C18_26
REMARK                            x       y       z     vdW  Elec       q    Type
REMARK                         _______ _______ _______ _____ _____    ______ ____
ROOT
ATOM      1  N3  UNL     1      -5.651  -2.966 -36.907  0.00  0.00    -0.174 NA
ATOM      2  C14 UNL     1      -6.242  -2.508 -38.102  0.00  0.00    +0.243 A 
ATOM      3  N4  UNL     1      -5.490  -2.546 -39.215  0.00  0.00    -0.210 NA
ATOM      4  C15 UNL     1      -6.053  -2.118 -40.360  0.00  0.00    +0.110 A 
ATOM      5  C16 UNL     1      -7.324  -1.634 -40.460  0.00  0.00    +0.144 A 
ATOM      6  C17 UNL     1      -8.011  -1.612 -39.282  0.00  0.00    +0.237 A 
ATOM      7  N5  UNL     1      -7.496  -2.022 -38.101  0.00  0.00    -0.177 NA
ENDROOT
BRANCH   1  11
ATOM      8  C8  UNL     1      -7.666  -4.123 -33.358  0.00  0.00    +0.086 A 
ATOM      9  C9  UNL     1      -7.075  -5.073 -34.193  0.00  0.00    +0.045 A 
ATOM     10  C10 UNL     1      -6.406  -4.699 -35.362  0.00  0.00    +0.154 A 
ATOM     11  C11 UNL     1      -6.310  -3.340 -35.712  0.00  0.00    +0.110 A 
ATOM     12  C12 UNL     1      -6.917  -2.398 -34.876  0.00  0.00    +0.049 A 
ATOM     13  C13 UNL     1      -7.586  -2.780 -33.715  0.00  0.00    +0.146 A 
ATOM     14  F1  UNL     1      -8.154  -1.818 -32.974  0.00  0.00    -0.204 F 
BRANCH   8  16
ATOM     15  N2  UNL     1      -7.659  -4.467 -30.964  0.00  0.00    -0.203 NA
ATOM     16  C7  UNL     1      -8.342  -4.627 -32.144  0.00  0.00    +0.267 C 
ATOM     17  O1  UNL     1      -9.446  -5.158 -32.233  0.00  0.00    -0.268 OA
BRANCH  15  22
ATOM     18  C1  UNL     1      -8.750  -4.846 -25.556  0.00  0.00    +0.090 C 
ATOM     19  N1  UNL     1      -8.802  -5.042 -26.994  0.00  0.00    -0.271 NA
ATOM     20  C2  UNL     1      -8.955  -3.733 -27.607  0.00  0.00    +0.074 C 
ATOM     21  C3  UNL     1      -9.132  -3.878 -29.104  0.00  0.00    +0.039 C 
ATOM     22  C4  UNL     1      -8.192  -4.912 -29.699  0.00  0.00    +0.098 C 
ATOM     23  C5  UNL     1      -7.047  -5.231 -28.762  0.00  0.00    +0.039 C 
ATOM     24  C6  UNL     1      -7.540  -5.647 -27.390  0.00  0.00    +0.074 C 
ENDBRANCH  15  22
ENDBRANCH   8  16
BRANCH  10  25
ATOM     25  O4  UNL     1      -5.820  -5.612 -36.201  0.00  0.00    -0.470 OA
ATOM     26  C28 UNL     1      -6.788  -6.396 -36.893  0.00  0.00    +0.253 C 
ENDBRANCH  10  25
ENDBRANCH   1  11
BRANCH   5  27
ATOM     27  C27 UNL     1      -7.870  -1.153 -41.741  0.00  0.00    +0.424 C 
ATOM     28  F2  UNL     1      -6.891  -0.882 -42.650  0.00  0.00    -0.166 F 
ATOM     29  F3  UNL     1      -8.685  -2.059 -42.353  0.00  0.00    -0.166 F 
ATOM     30  F4  UNL     1      -8.605  -0.013 -41.639  0.00  0.00    -0.166 F 
ENDBRANCH   5  27
BRANCH   6  31
ATOM     31  O2  UNL     1      -9.302  -1.095 -39.301  0.00  0.00    -0.436 OA
BRANCH  31  32
ATOM     32  C18 UNL     1     -10.107  -1.439 -38.250  0.00  0.00    +0.151 A 
ATOM     33  C19 UNL     1      -9.931  -0.764 -37.041  0.00  0.00    +0.038 A 
ATOM     34  C20 UNL     1     -10.743  -1.059 -35.935  0.00  0.00    +0.003 A 
ATOM     35  C21 UNL     1     -11.753  -2.019 -36.017  0.00  0.00    -0.002 A 
ATOM     36  C22 UNL     1     -11.936  -2.663 -37.227  0.00  0.00    +0.005 A 
ATOM     37  C23 UNL     1     -11.129  -2.366 -38.328  0.00  0.00    +0.086 A 
ATOM     38  C24 UNL     1     -11.591  -3.193 -39.452  0.00  0.00    +0.252 C 
ATOM     39  O3  UNL     1     -11.142  -3.179 -40.582  0.00  0.00    -0.270 OA
ATOM     40  N6  UNL     1     -12.624  -3.962 -38.963  0.00  0.00    -0.270 N 
ATOM     41  C25 UNL     1     -12.933  -3.718 -37.571  0.00  0.00    +0.121 C 
ATOM     42  C26 UNL     1     -13.363  -4.907 -39.748  0.00  0.00    +0.116 C 
ENDBRANCH  31  32
ENDBRANCH   6  31
TORSDOF 7
ENDMDL
