MODEL 1
REMARK VINA RESULT:    -6.982      0.000      0.000
REMARK INTER + INTRA:          -9.527
REMARK INTER:                  -8.207
REMARK INTRA:                  -1.320
REMARK UNBOUND:                -1.320
REMARK  Name = /tmp/tmpmdmku6b3/7YCE_candidate_0026.pdb
REMARK  3 active torsions:
REMARK  status: ('A' for Active; 'I' for Inactive)
REMARK    1  A    between atoms: C2_2  and  C3_3
REMARK    2  A    between atoms: C12_16  and  C17_23
REMARK    3  A    between atoms: C19_25  and  C25_34
REMARK                            x       y       z     vdW  Elec       q    Type
REMARK                         _______ _______ _______ _____ _____    ______ ____
ROOT
ATOM      1  C3  UNL     1      -7.630  26.015 -13.292  0.00  0.00    +0.249 C 
ATOM      2  O1  UNL     1      -6.494  25.552 -13.309  0.00  0.00    -0.270 OA
ATOM      3  N1  UNL     1      -8.425  26.109 -14.416  0.00  0.00    -0.273 N 
ATOM      4  C4  UNL     1      -7.955  25.429 -15.606  0.00  0.00    +0.115 C 
ATOM      5  C5  UNL     1      -8.501  26.034 -16.892  0.00  0.00    +0.115 C 
ATOM      6  N2  UNL     1      -9.926  26.308 -16.828  0.00  0.00    -0.274 N 
ATOM      7  C6  UNL     1     -10.417  26.975 -15.629  0.00  0.00    +0.099 C 
ATOM      8  C7  UNL     1      -9.848  26.395 -14.339  0.00  0.00    +0.114 C 
ATOM      9  C8  UNL     1     -10.150  28.467 -15.704  0.00  0.00    +0.069 C 
ATOM     10  C9  UNL     1     -10.698  29.023 -17.002  0.00  0.00    +0.207 C 
ATOM     11  O2  UNL     1     -12.112  28.943 -16.974  0.00  0.00    -0.474 OA
ATOM     12  C10 UNL     1     -12.688  27.827 -17.523  0.00  0.00    +0.153 A 
ATOM     13  C11 UNL     1     -14.106  27.851 -17.539  0.00  0.00    +0.094 A 
ATOM     14  C12 UNL     1     -14.866  26.767 -18.031  0.00  0.00    +0.041 A 
ATOM     15  C13 UNL     1     -14.170  25.676 -18.560  0.00  0.00    +0.141 A 
ATOM     16  C14 UNL     1     -12.784  25.633 -18.563  0.00  0.00    +0.037 A 
ATOM     17  C15 UNL     1     -12.040  26.686 -18.025  0.00  0.00    +0.091 A 
ATOM     18  C16 UNL     1     -10.591  26.405 -18.042  0.00  0.00    +0.252 C 
ATOM     19  O3  UNL     1     -10.051  26.190 -19.122  0.00  0.00    -0.270 OA
ATOM     20  F1  UNL     1     -14.845  24.620 -19.037  0.00  0.00    -0.204 F 
ATOM     21 CL1  UNL     1     -14.941  29.240 -16.891  0.00  0.00    -0.079 Cl
ENDROOT
BRANCH  14  22
ATOM     22  C17 UNL     1     -16.331  26.728 -17.981  0.00  0.00    +0.004 A 
ATOM     23  C18 UNL     1     -17.016  26.341 -16.781  0.00  0.00    +0.020 A 
ATOM     24  C19 UNL     1     -16.552  25.942 -15.464  0.00  0.00    +0.092 A 
ATOM     25  C20 UNL     1     -17.575  25.650 -14.587  0.00  0.00    +0.128 A 
ATOM     26  S1  UNL     1     -19.098  25.846 -15.318  0.00  0.00    -0.066 S 
ATOM     27  C21 UNL     1     -18.417  26.326 -16.822  0.00  0.00    +0.059 A 
ATOM     28  C22 UNL     1     -19.125  26.673 -17.989  0.00  0.00    +0.146 A 
ATOM     29  C23 UNL     1     -18.443  27.041 -19.139  0.00  0.00    +0.030 A 
ATOM     30  C24 UNL     1     -17.062  27.065 -19.133  0.00  0.00    +0.002 A 
ATOM     31  F2  UNL     1     -20.466  26.654 -18.006  0.00  0.00    -0.204 F 
ATOM     32  N3  UNL     1     -17.468  25.252 -13.293  0.00  0.00    -0.120 NA
BRANCH  24  33
ATOM     33  C25 UNL     1     -15.177  25.850 -15.062  0.00  0.00    +0.102 C 
ATOM     34  N4  UNL     1     -14.071  25.735 -14.726  0.00  0.00    -0.191 NA
ENDBRANCH  24  33
ENDBRANCH  14  22
BRANCH   1  36
ATOM     35  C1  UNL     1      -8.341  25.734 -11.000  0.00  0.00    +0.005 C 
ATOM     36  C2  UNL     1      -8.260  26.544 -12.058  0.00  0.00    +0.058 C 
ENDBRANCH   1  36
TORSDOF 3
ENDMDL
