MODEL 1
REMARK VINA RESULT:    -5.787      0.000      0.000
REMARK INTER + INTRA:          -9.142
REMARK INTER:                  -7.479
REMARK INTRA:                  -1.664
REMARK UNBOUND:                -1.664
REMARK  Name = /tmp/tmp5oymnic1/7YCE_candidate_0031.pdb
REMARK  5 active torsions:
REMARK  status: ('A' for Active; 'I' for Inactive)
REMARK    1  A    between atoms: C6_8  and  C7_10
REMARK    2  A    between atoms: N4_17  and  C23_33
REMARK    3  A    between atoms: C13_20  and  C17_25
REMARK    4  A    between atoms: C24_34  and  C30_42
REMARK    5  A    between atoms: C26_38  and  C27_39
REMARK                            x       y       z     vdW  Elec       q    Type
REMARK                         _______ _______ _______ _____ _____    ______ ____
ROOT
ATOM      1  C1  UNL     1     -19.484  29.002 -15.268  0.00  0.00    +0.023 C 
ATOM      2  C2  UNL     1     -19.986  28.033 -16.315  0.00  0.00    +0.095 C 
ATOM      3  C3  UNL     1     -19.274  26.689 -16.199  0.00  0.00    +0.112 C 
ATOM      4  N1  UNL     1     -17.929  26.730 -16.785  0.00  0.00    -0.291 N 
ATOM      5  C4  UNL     1     -17.908  27.186 -18.169  0.00  0.00    +0.094 C 
ATOM      6  C5  UNL     1     -18.636  28.514 -18.351  0.00  0.00    +0.113 C 
ATOM      7  N2  UNL     1     -19.908  28.603 -17.656  0.00  0.00    -0.274 N 
ATOM      8  C6  UNL     1     -20.801  29.541 -18.134  0.00  0.00    +0.249 C 
ATOM      9  O1  UNL     1     -20.612  30.175 -19.167  0.00  0.00    -0.270 OA
ATOM     10  C9  UNL     1     -18.474  26.125 -19.082  0.00  0.00    +0.023 C 
ATOM     11  C10 UNL     1     -16.835  26.708 -15.933  0.00  0.00    +0.139 A 
ATOM     12  N3  UNL     1     -17.073  26.637 -14.655  0.00  0.00    -0.177 NA
ATOM     13  C11 UNL     1     -16.081  26.597 -13.710  0.00  0.00    +0.356 A 
ATOM     14  O2  UNL     1     -16.377  26.530 -12.519  0.00  0.00    -0.244 OA
ATOM     15  N4  UNL     1     -14.758  26.612 -14.129  0.00  0.00    -0.241 N 
ATOM     16  C12 UNL     1     -14.423  26.706 -15.492  0.00  0.00    +0.154 A 
ATOM     17  N5  UNL     1     -13.115  26.781 -15.857  0.00  0.00    -0.225 NA
ATOM     18  C13 UNL     1     -12.802  26.878 -17.175  0.00  0.00    +0.114 A 
ATOM     19  C14 UNL     1     -13.785  26.910 -18.153  0.00  0.00    +0.158 A 
ATOM     20  C15 UNL     1     -15.116  26.845 -17.772  0.00  0.00    +0.037 A 
ATOM     21  C16 UNL     1     -15.443  26.751 -16.425  0.00  0.00    +0.069 A 
ATOM     22  F1  UNL     1     -13.479  27.032 -19.451  0.00  0.00    -0.203 F 
ENDROOT
BRANCH  18  23
ATOM     23  C17 UNL     1     -11.369  26.934 -17.479  0.00  0.00    +0.064 A 
ATOM     24  C18 UNL     1     -10.625  28.124 -17.366  0.00  0.00    +0.093 A 
ATOM     25  C19 UNL     1      -9.253  28.128 -17.649  0.00  0.00    +0.018 A 
ATOM     26  C20 UNL     1      -8.603  26.961 -18.043  0.00  0.00    +0.004 A 
ATOM     27  C21 UNL     1      -9.322  25.781 -18.163  0.00  0.00    +0.030 A 
ATOM     28  C22 UNL     1     -10.687  25.775 -17.881  0.00  0.00    +0.143 A 
ATOM     29  F2  UNL     1     -11.350  24.613 -17.987  0.00  0.00    -0.204 F 
ATOM     30  N6  UNL     1     -11.226  29.348 -16.996  0.00  0.00    -0.128 NA
ENDBRANCH  18  23
BRANCH  15  31
ATOM     31  C23 UNL     1     -13.692  26.608 -13.179  0.00  0.00    +0.097 A 
ATOM     32  C24 UNL     1     -13.259  27.796 -12.575  0.00  0.00    +0.078 A 
ATOM     33  N7  UNL     1     -12.254  27.791 -11.666  0.00  0.00    -0.227 NA
ATOM     34  C25 UNL     1     -11.699  26.610 -11.367  0.00  0.00    +0.198 A 
ATOM     35  N8  UNL     1     -12.044  25.430 -11.892  0.00  0.00    -0.227 NA
ATOM     36  C26 UNL     1     -13.050  25.420 -12.800  0.00  0.00    +0.078 A 
BRANCH  36  37
ATOM     37  C27 UNL     1     -13.495  24.094 -13.343  0.00  0.00    +0.042 C 
ATOM     38  C28 UNL     1     -13.219  22.827 -12.589  0.00  0.00    +0.006 C 
ATOM     39  C29 UNL     1     -14.627  23.325 -12.726  0.00  0.00    +0.006 C 
ENDBRANCH  36  37
BRANCH  32  40
ATOM     40  C30 UNL     1     -13.849  29.127 -12.938  0.00  0.00    +0.042 C 
ATOM     41  C31 UNL     1     -13.237  29.948 -14.038  0.00  0.00    +0.006 C 
ATOM     42  C32 UNL     1     -13.138  30.410 -12.618  0.00  0.00    +0.006 C 
ENDBRANCH  32  40
ENDBRANCH  15  31
BRANCH   8  43
ATOM     43  C7  UNL     1     -22.025  29.694 -17.312  0.00  0.00    +0.058 C 
ATOM     44  C8  UNL     1     -23.162  29.175 -17.784  0.00  0.00    +0.005 C 
ENDBRANCH   8  43
TORSDOF 5
ENDMDL
