MODEL 1
REMARK VINA RESULT:    -3.442      0.000      0.000
REMARK INTER + INTRA:          -4.236
REMARK INTER:                  -4.046
REMARK INTRA:                  -0.191
REMARK UNBOUND:                -0.191
REMARK  Name = /tmp/tmpbi18xz01/7YCE_candidate_0085.pdb
REMARK  3 active torsions:
REMARK  status: ('A' for Active; 'I' for Inactive)
REMARK    1  A    between atoms: C1_1  and  C2_2
REMARK    2  A    between atoms: C1_1  and  C4_7
REMARK    3  A    between atoms: C2_2  and  N1_3
REMARK                            x       y       z     vdW  Elec       q    Type
REMARK                         _______ _______ _______ _____ _____    ______ ____
ROOT
ATOM      1  C2  UNL     1     -16.654  -0.779 -16.199  0.00  0.00    +0.141 C 
ENDROOT
BRANCH   1   2
ATOM      2  N1  UNL     1     -15.532  -1.073 -17.086  0.00  0.00    -0.233 NA
ATOM      3  C3  UNL     1     -14.613  -1.794 -16.511  0.00  0.00    +0.284 C 
ATOM      4  N2  UNL     1     -13.471  -2.177 -17.187  0.00  0.00    -0.104 NA
ATOM      5  N3  UNL     1     -14.627  -2.268 -15.210  0.00  0.00    -0.104 NA
ENDBRANCH   1   2
BRANCH   1   6
ATOM      6  C1  UNL     1     -17.934  -1.045 -16.950  0.00  0.00    +0.140 C 
BRANCH   6   7
ATOM      7  C4  UNL     1     -18.490  -2.322 -16.425  0.00  0.00    +0.367 C 
ATOM      8  O1  UNL     1     -17.826  -3.281 -16.063  0.00  0.00    -0.246 OA
ATOM      9  O2  UNL     1     -19.844  -2.274 -16.407  0.00  0.00    -0.246 OA
ENDBRANCH   6   7
ENDBRANCH   1   6
TORSDOF 3
ENDMDL
