MODEL 1
REMARK VINA RESULT:    -6.951      0.000      0.000
REMARK INTER + INTRA:         -10.210
REMARK INTER:                  -8.982
REMARK INTRA:                  -1.228
REMARK UNBOUND:                -1.228
REMARK  Name = /tmp/tmpme5xit7x/7YCE_candidate_0003.pdb
REMARK  5 active torsions:
REMARK  status: ('A' for Active; 'I' for Inactive)
REMARK    1  A    between atoms: C2_2  and  C3_3
REMARK    2  A    between atoms: C11_11  and  C13_13
REMARK    3  A    between atoms: C18_21  and  O1_32
REMARK    4  A    between atoms: O1_32  and  C26_33
REMARK    5  A    between atoms: C26_33  and  C27_34
REMARK                            x       y       z     vdW  Elec       q    Type
REMARK                         _______ _______ _______ _____ _____    ______ ____
ROOT
ATOM      1  C13 UNL     1     -19.474  12.989 -10.557  0.00  0.00    +0.110 A 
ATOM      2  N1  UNL     1     -20.178  12.303  -9.629  0.00  0.00    -0.241 NA
ATOM      3  C14 UNL     1     -21.503  12.184  -9.850  0.00  0.00    +0.103 A 
ATOM      4  C15 UNL     1     -22.180  12.723 -10.944  0.00  0.00    +0.071 A 
ATOM      5  C16 UNL     1     -21.436  13.406 -11.904  0.00  0.00    +0.119 A 
ATOM      6  C17 UNL     1     -20.067  13.533 -11.695  0.00  0.00    +0.175 A 
ATOM      7  F1  UNL     1     -19.311  14.187 -12.593  0.00  0.00    -0.201 F 
ATOM      8  N2  UNL     1     -22.011  13.924 -12.999  0.00  0.00    -0.192 NA
ATOM      9  C18 UNL     1     -23.331  13.749 -13.136  0.00  0.00    +0.321 A 
ATOM     10  N3  UNL     1     -24.123  13.104 -12.275  0.00  0.00    -0.179 NA
ATOM     11  C19 UNL     1     -23.559  12.606 -11.161  0.00  0.00    +0.139 A 
ATOM     12  N4  UNL     1     -24.382  11.926 -10.233  0.00  0.00    -0.290 N 
ATOM     13  C20 UNL     1     -25.732  11.731 -10.795  0.00  0.00    +0.109 C 
ATOM     14  C21 UNL     1     -26.752  11.301  -9.729  0.00  0.00    +0.093 C 
ATOM     15  C22 UNL     1     -26.251  10.078  -8.973  0.00  0.00    +0.021 C 
ATOM     16  C23 UNL     1     -25.414  10.645  -7.834  0.00  0.00    +0.021 C 
ATOM     17  C24 UNL     1     -25.498  12.156  -8.006  0.00  0.00    +0.093 C 
ATOM     18  C25 UNL     1     -24.394  12.657  -8.951  0.00  0.00    +0.109 C 
ATOM     19  N5  UNL     1     -26.802  12.324  -8.669  0.00  0.00    -0.217 NA
ENDROOT
BRANCH   1  28
ATOM     20  C3  UNL     1     -17.358  10.718 -11.083  0.00  0.00    +0.043 A 
ATOM     21  C4  UNL     1     -16.323   9.795 -11.287  0.00  0.00    +0.008 A 
ATOM     22  C5  UNL     1     -15.008  10.118 -10.997  0.00  0.00    +0.001 A 
ATOM     23  C6  UNL     1     -14.719  11.376 -10.496  0.00  0.00    +0.000 A 
ATOM     24  C7  UNL     1     -15.727  12.312 -10.284  0.00  0.00    +0.004 A 
ATOM     25  C8  UNL     1     -15.320  13.540  -9.775  0.00  0.00    +0.042 A 
ATOM     26  C9  UNL     1     -16.251  14.530  -9.532  0.00  0.00    +0.196 A 
ATOM     27  C10 UNL     1     -17.590  14.316  -9.794  0.00  0.00    +0.044 A 
ATOM     28  C11 UNL     1     -18.037  13.086 -10.309  0.00  0.00    +0.024 A 
ATOM     29  C12 UNL     1     -17.094  12.029 -10.570  0.00  0.00    +0.009 A 
ATOM     30  O2  UNL     1     -15.847  15.728  -9.032  0.00  0.00    -0.287 OA
BRANCH  20  32
ATOM     31  C1  UNL     1     -19.738   9.790 -11.732  0.00  0.00    -0.009 C 
ATOM     32  C2  UNL     1     -18.664  10.230 -11.418  0.00  0.00    -0.051 C 
ENDBRANCH  20  32
ENDBRANCH   1  28
BRANCH   9  33
ATOM     33  O1  UNL     1     -23.969  14.226 -14.259  0.00  0.00    -0.445 OA
BRANCH  33  34
ATOM     34  C26 UNL     1     -25.263  14.688 -13.896  0.00  0.00    +0.223 C 
BRANCH  34  35
ATOM     35  C27 UNL     1     -26.327  14.350 -14.937  0.00  0.00    +0.086 C 
ATOM     36  C28 UNL     1     -27.067  13.064 -14.628  0.00  0.00    +0.020 C 
ATOM     37  C29 UNL     1     -28.385  13.495 -14.024  0.00  0.00    +0.019 C 
ATOM     38  C30 UNL     1     -28.456  15.001 -14.197  0.00  0.00    +0.072 C 
ATOM     39  N6  UNL     1     -27.346  15.400 -15.059  0.00  0.00    -0.272 NA
ATOM     40  C31 UNL     1     -27.818  15.368 -16.441  0.00  0.00    +0.072 C 
ATOM     41  C32 UNL     1     -26.615  14.959 -17.264  0.00  0.00    +0.019 C 
ATOM     42  C33 UNL     1     -25.668  14.277 -16.299  0.00  0.00    +0.020 C 
ENDBRANCH  34  35
ENDBRANCH  33  34
ENDBRANCH   9  33
TORSDOF 5
ENDMDL
