MODEL 1
REMARK VINA RESULT:    -5.196      0.000      0.000
REMARK INTER + INTRA:         -10.175
REMARK INTER:                  -7.929
REMARK INTRA:                  -2.246
REMARK UNBOUND:                -2.246
REMARK  Name = /tmp/tmppvphjc1a/7YCE_candidate_0022.pdb
REMARK  9 active torsions:
REMARK  status: ('A' for Active; 'I' for Inactive)
REMARK    1  A    between atoms: C2_2  and  C3_3
REMARK    2  A    between atoms: C2_2  and  N7_32
REMARK    3  A    between atoms: C3_3  and  N1_4
REMARK    4  A    between atoms: C7_9  and  C8_11
REMARK    5  A    between atoms: N4_13  and  C18_29
REMARK    6  A    between atoms: C10_15  and  C11_16
REMARK    7  A    between atoms: C13_18  and  N6_23
REMARK    8  A    between atoms: N6_23  and  S1_24
REMARK    9  A    between atoms: C21_33  and  O4_35
REMARK                            x       y       z     vdW  Elec       q    Type
REMARK                         _______ _______ _______ _____ _____    ______ ____
ROOT
ATOM      1  C8  UNL     1     -11.905  25.086 -14.551  0.00  0.00    +0.056 A 
ATOM      2  C9  UNL     1     -10.628  25.305 -14.076  0.00  0.00    +0.098 A 
ATOM      3  N4  UNL     1      -9.894  25.736 -15.134  0.00  0.00    -0.251 N 
ATOM      4  N5  UNL     1     -10.581  25.786 -16.284  0.00  0.00    -0.169 NA
ATOM      5  C10 UNL     1     -11.831  25.430 -15.940  0.00  0.00    +0.106 A 
ENDROOT
BRANCH   5   6
ATOM      6  C11 UNL     1     -12.866  25.434 -16.962  0.00  0.00    +0.049 A 
ATOM      7  C12 UNL     1     -13.739  26.511 -17.128  0.00  0.00    +0.158 A 
ATOM      8  C13 UNL     1     -14.706  26.490 -18.136  0.00  0.00    +0.119 A 
ATOM      9  C14 UNL     1     -14.793  25.405 -19.004  0.00  0.00    +0.032 A 
ATOM     10  C15 UNL     1     -13.916  24.339 -18.846  0.00  0.00    +0.059 A 
ATOM     11  C16 UNL     1     -12.958  24.348 -17.837  0.00  0.00    +0.015 A 
ATOM     12 CL1  UNL     1     -14.026  22.994 -19.905  0.00  0.00    -0.082 Cl
ATOM     13  F1  UNL     1     -13.662  27.577 -16.315  0.00  0.00    -0.203 F 
BRANCH   8  14
ATOM     14  N6  UNL     1     -15.588  27.602 -18.316  0.00  0.00    -0.098 NA
BRANCH  14  15
ATOM     15  S1  UNL     1     -17.191  27.352 -17.773  0.00  0.00    +0.075 S 
ATOM     16  O1  UNL     1     -17.969  26.803 -18.864  0.00  0.00    -0.153 OA
ATOM     17  O2  UNL     1     -17.182  26.746 -16.458  0.00  0.00    -0.153 OA
ATOM     18  C17 UNL     1     -17.687  29.046 -17.587  0.00  0.00    +0.202 C 
ENDBRANCH  14  15
ENDBRANCH   8  14
ENDBRANCH   5   6
BRANCH   1  24
ATOM     19  N1  UNL     1     -16.357  25.493 -13.037  0.00  0.00    -0.202 NA
ATOM     20  C4  UNL     1     -15.148  24.787 -12.971  0.00  0.00    +0.237 A 
ATOM     21  N2  UNL     1     -15.018  23.736 -12.145  0.00  0.00    -0.211 NA
ATOM     22  C5  UNL     1     -13.827  23.114 -12.134  0.00  0.00    +0.103 A 
ATOM     23  C6  UNL     1     -12.746  23.484 -12.892  0.00  0.00    +0.040 A 
ATOM     24  C7  UNL     1     -12.967  24.566 -13.708  0.00  0.00    +0.089 A 
ATOM     25  N3  UNL     1     -14.145  25.227 -13.748  0.00  0.00    -0.212 NA
BRANCH  19  26
ATOM     26  C3  UNL     1     -17.361  24.882 -12.191  0.00  0.00    +0.137 C 
BRANCH  26  28
ATOM     27  C1  UNL     1     -19.772  24.884 -11.592  0.00  0.00    +0.025 C 
ATOM     28  C2  UNL     1     -18.743  25.361 -12.592  0.00  0.00    +0.120 C 
BRANCH  28  29
ATOM     29  N7  UNL     1     -19.115  24.896 -13.905  0.00  0.00    -0.169 NA
ATOM     30  C21 UNL     1     -19.850  25.677 -14.759  0.00  0.00    +0.421 C 
ATOM     31  O3  UNL     1     -20.233  26.814 -14.510  0.00  0.00    -0.225 OA
BRANCH  30  32
ATOM     32  O4  UNL     1     -20.083  25.017 -15.920  0.00  0.00    -0.429 OA
ATOM     33  C22 UNL     1     -20.805  25.832 -16.836  0.00  0.00    +0.257 C 
ENDBRANCH  30  32
ENDBRANCH  28  29
ENDBRANCH  26  28
ENDBRANCH  19  26
ENDBRANCH   1  24
BRANCH   3  34
ATOM     34  C18 UNL     1      -8.501  26.113 -15.130  0.00  0.00    +0.105 C 
ATOM     35  C19 UNL     1      -7.853  25.863 -16.471  0.00  0.00    +0.026 C 
ATOM     36  C20 UNL     1      -7.737  25.408 -14.035  0.00  0.00    +0.026 C 
ENDBRANCH   3  34
TORSDOF 9
ENDMDL
