MODEL 1
REMARK VINA RESULT:    -6.025      0.000      0.000
REMARK INTER + INTRA:         -11.444
REMARK INTER:                  -9.194
REMARK INTRA:                  -2.250
REMARK UNBOUND:                -2.250
REMARK  Name = /tmp/tmpm94g2le5/7YCE_candidate_0074.pdb
REMARK  9 active torsions:
REMARK  status: ('A' for Active; 'I' for Inactive)
REMARK    1  A    between atoms: C7_7  and  O14_67
REMARK    2  A    between atoms: C18_19  and  O13_62
REMARK    3  A    between atoms: C25_27  and  C35_44
REMARK    4  A    between atoms: C35_44  and  C37_46
REMARK    5  A    between atoms: C37_46  and  C38_47
REMARK    6  A    between atoms: C41_50  and  O10_55
REMARK    7  A    between atoms: C42_51  and  O9_53
REMARK    8  A    between atoms: O10_55  and  C45_56
REMARK    9  A    between atoms: C45_56  and  C46_57
REMARK                            x       y       z     vdW  Elec       q    Type
REMARK                         _______ _______ _______ _____ _____    ______ ____
ROOT
ATOM      1  C1  UNL     1     -10.715  31.305 -12.835  0.00  0.00    +0.006 C 
ATOM      2  C2  UNL     1      -9.862  30.156 -13.331  0.00  0.00    +0.062 C 
ATOM      3  C3  UNL     1     -10.087  28.967 -12.421  0.00  0.00    +0.008 C 
ATOM      4  C4  UNL     1      -8.790  28.357 -11.953  0.00  0.00    +0.030 C 
ATOM      5  C5  UNL     1      -7.842  29.410 -11.422  0.00  0.00    +0.121 C 
ATOM      6  C6  UNL     1      -6.441  28.882 -11.215  0.00  0.00    +0.063 C 
ATOM      7  C7  UNL     1      -6.306  28.022  -9.974  0.00  0.00    +0.136 C 
ATOM      8  C8  UNL     1      -6.881  26.649 -10.096  0.00  0.00    -0.017 C 
ATOM      9  C9  UNL     1      -7.985  26.335  -9.402  0.00  0.00    -0.006 C 
ATOM     10  C10 UNL     1      -8.718  25.105  -9.484  0.00  0.00    -0.001 C 
ATOM     11  C11 UNL     1      -9.451  24.800 -10.559  0.00  0.00    -0.000 C 
ATOM     12  C12 UNL     1     -10.206  23.598 -10.727  0.00  0.00    -0.005 C 
ATOM     13  C13 UNL     1     -11.245  23.254  -9.966  0.00  0.00    -0.026 C 
ATOM     14  C14 UNL     1     -12.071  22.058 -10.267  0.00  0.00    +0.022 C 
ATOM     15  C15 UNL     1     -13.499  22.435 -10.602  0.00  0.00    +0.012 C 
ATOM     16  C16 UNL     1     -13.591  23.205 -11.901  0.00  0.00    +0.061 C 
ATOM     17  C17 UNL     1     -14.076  24.609 -11.630  0.00  0.00    +0.180 C 
ATOM     18  O1  UNL     1     -13.269  25.542 -11.581  0.00  0.00    -0.293 OA
ATOM     19  C18 UNL     1     -15.547  24.857 -11.340  0.00  0.00    +0.206 C 
ATOM     20  C19 UNL     1     -16.296  25.507 -12.489  0.00  0.00    +0.204 C 
ATOM     21  C20 UNL     1     -15.960  26.937 -12.793  0.00  0.00    -0.015 C 
ATOM     22  C21 UNL     1     -15.697  27.375 -14.031  0.00  0.00    -0.025 C 
ATOM     23  C22 UNL     1     -15.367  28.724 -14.554  0.00  0.00    +0.079 C 
ATOM     24  C23 UNL     1     -13.874  28.894 -14.712  0.00  0.00    +0.158 C 
ATOM     25  O2  UNL     1     -13.104  29.039 -13.766  0.00  0.00    -0.296 OA
ATOM     26  C24 UNL     1     -13.374  28.885 -16.125  0.00  0.00    +0.108 C 
ATOM     27  C25 UNL     1     -12.930  27.484 -16.479  0.00  0.00    +0.176 C 
ATOM     28  O3  UNL     1     -11.685  27.588 -17.167  0.00  0.00    -0.451 OA
ATOM     29  C26 UNL     1     -10.673  27.034 -16.446  0.00  0.00    +0.335 C 
ATOM     30  O4  UNL     1     -10.811  26.373 -15.426  0.00  0.00    -0.248 OA
ATOM     31  C27 UNL     1      -9.342  27.384 -17.088  0.00  0.00    +0.175 C 
ATOM     32  C28 UNL     1      -8.865  26.234 -17.949  0.00  0.00    +0.031 C 
ATOM     33  C29 UNL     1      -7.770  25.383 -17.340  0.00  0.00    +0.004 C 
ATOM     34  C30 UNL     1      -7.779  25.448 -15.832  0.00  0.00    +0.022 C 
ATOM     35  C31 UNL     1      -7.593  26.872 -15.353  0.00  0.00    +0.094 C 
ATOM     36  N1  UNL     1      -8.381  27.838 -16.096  0.00  0.00    -0.265 N 
ATOM     37  C32 UNL     1      -8.489  29.162 -15.689  0.00  0.00    +0.289 C 
ATOM     38  O5  UNL     1      -9.240  29.971 -16.226  0.00  0.00    -0.267 OA
ATOM     39  C33 UNL     1      -7.666  29.596 -14.476  0.00  0.00    +0.279 C 
ATOM     40  O6  UNL     1      -6.520  29.174 -14.340  0.00  0.00    -0.281 OA
ATOM     41  C34 UNL     1      -8.389  30.528 -13.488  0.00  0.00    +0.279 C 
ATOM     42  O7  UNL     1      -7.769  30.596 -12.204  0.00  0.00    -0.329 OA
ATOM     43  O8  UNL     1      -8.299  31.814 -14.101  0.00  0.00    -0.187 OA
ATOM     44  C47 UNL     1     -15.953  29.895 -13.804  0.00  0.00    +0.012 C 
ATOM     45  C48 UNL     1     -15.922  27.846 -11.609  0.00  0.00    +0.029 C 
ATOM     46  O12 UNL     1     -16.345  24.690 -13.643  0.00  0.00    -0.216 OA
ATOM     47  C50 UNL     1     -14.440  22.470 -12.905  0.00  0.00    +0.008 C 
ATOM     48  C51 UNL     1     -12.070  21.135  -9.073  0.00  0.00    +0.005 C 
ATOM     49  C52 UNL     1      -6.214  25.696 -11.030  0.00  0.00    +0.029 C 
ENDROOT
BRANCH  27  50
ATOM     50  C35 UNL     1     -13.968  26.768 -17.326  0.00  0.00    +0.041 C 
ATOM     51  C36 UNL     1     -13.348  25.747 -18.253  0.00  0.00    +0.004 C 
BRANCH  50  52
ATOM     52  C37 UNL     1     -14.953  27.660 -18.054  0.00  0.00    +0.004 C 
BRANCH  52  53
ATOM     53  C38 UNL     1     -16.252  26.974 -18.416  0.00  0.00    +0.003 C 
ATOM     54  C39 UNL     1     -16.997  27.810 -19.437  0.00  0.00    +0.003 C 
ATOM     55  C40 UNL     1     -18.439  27.369 -19.536  0.00  0.00    +0.032 C 
ATOM     56  C41 UNL     1     -19.187  27.519 -18.222  0.00  0.00    +0.142 C 
ATOM     57  C42 UNL     1     -18.275  27.583 -16.992  0.00  0.00    +0.142 C 
ATOM     58  C43 UNL     1     -17.061  26.687 -17.165  0.00  0.00    +0.032 C 
BRANCH  57  59
ATOM     59  O9  UNL     1     -17.820  28.916 -16.775  0.00  0.00    -0.351 OA
ATOM     60  C44 UNL     1     -18.867  29.644 -16.152  0.00  0.00    +0.174 C 
ENDBRANCH  57  59
BRANCH  56  61
ATOM     61  O10 UNL     1     -20.082  26.413 -18.123  0.00  0.00    -0.351 OA
BRANCH  61  62
ATOM     62  C45 UNL     1     -20.791  26.522 -16.894  0.00  0.00    +0.178 C 
BRANCH  62  63
ATOM     63  C46 UNL     1     -21.144  25.139 -16.386  0.00  0.00    +0.214 C 
ATOM     64  O11 UNL     1     -22.555  25.000 -16.438  0.00  0.00    -0.218 OA
ENDBRANCH  62  63
ENDBRANCH  61  62
ENDBRANCH  56  61
ENDBRANCH  52  53
ENDBRANCH  50  52
ENDBRANCH  27  50
BRANCH  19  65
ATOM     65  O13 UNL     1     -16.256  23.790 -10.749  0.00  0.00    -0.343 OA
ATOM     66  C49 UNL     1     -17.537  24.277 -10.375  0.00  0.00    +0.175 C 
ENDBRANCH  19  65
BRANCH   7  67
ATOM     67  O14 UNL     1      -4.989  27.976  -9.450  0.00  0.00    -0.349 OA
ATOM     68  C53 UNL     1      -4.896  28.588  -8.174  0.00  0.00    +0.174 C 
ENDBRANCH   7  67
TORSDOF 9
ENDMDL
