MODEL 1
REMARK VINA RESULT:    -7.061      0.000      0.000
REMARK INTER + INTRA:         -10.360
REMARK INTER:                  -8.712
REMARK INTRA:                  -1.648
REMARK UNBOUND:                -1.648
REMARK  Name = /tmp/tmpt35fha_6/7YCE_candidate_0030.pdb
REMARK  4 active torsions:
REMARK  status: ('A' for Active; 'I' for Inactive)
REMARK    1  A    between atoms: C3_3  and  N2_11
REMARK    2  A    between atoms: C4_4  and  C7_8
REMARK    3  A    between atoms: C11_14  and  C27_37
REMARK    4  A    between atoms: C23_31  and  C24_33
REMARK                            x       y       z     vdW  Elec       q    Type
REMARK                         _______ _______ _______ _____ _____    ______ ____
ROOT
ATOM      1  N2  UNL     1     -15.259  26.866 -16.999  0.00  0.00    -0.257 N 
ATOM      2  C10 UNL     1     -15.402  26.312 -15.705  0.00  0.00    +0.151 A 
ATOM      3  N3  UNL     1     -14.284  26.022 -14.986  0.00  0.00    -0.227 NA
ATOM      4  C11 UNL     1     -14.403  25.500 -13.738  0.00  0.00    +0.099 A 
ATOM      5  C12 UNL     1     -15.641  25.259 -13.169  0.00  0.00    +0.076 A 
ATOM      6  C13 UNL     1     -16.766  25.553 -13.924  0.00  0.00    +0.017 A 
ATOM      7  C14 UNL     1     -16.682  26.066 -15.220  0.00  0.00    +0.050 A 
ATOM      8  C15 UNL     1     -17.884  26.349 -16.032  0.00  0.00    +0.070 A 
ATOM      9  C16 UNL     1     -17.729  26.887 -17.266  0.00  0.00    +0.125 A 
ATOM     10  C17 UNL     1     -16.339  27.172 -17.812  0.00  0.00    +0.281 A 
ATOM     11  O1  UNL     1     -16.207  27.681 -18.927  0.00  0.00    -0.265 OA
ATOM     12  N4  UNL     1     -18.849  27.142 -18.065  0.00  0.00    -0.251 N 
ATOM     13  C18 UNL     1     -20.160  26.963 -17.638  0.00  0.00    +0.249 C 
ATOM     14  O2  UNL     1     -21.129  27.100 -18.389  0.00  0.00    -0.273 OA
ATOM     15  C19 UNL     1     -20.343  26.681 -16.155  0.00  0.00    +0.170 C 
ATOM     16  N5  UNL     1     -19.159  26.062 -15.520  0.00  0.00    -0.297 N 
ATOM     17  C20 UNL     1     -19.449  25.018 -14.536  0.00  0.00    +0.113 C 
ATOM     18  C21 UNL     1     -20.711  25.304 -13.732  0.00  0.00    +0.115 C 
ATOM     19  N6  UNL     1     -21.870  25.496 -14.582  0.00  0.00    -0.272 N 
ATOM     20  C22 UNL     1     -21.642  25.905 -15.962  0.00  0.00    +0.123 C 
ATOM     21  C23 UNL     1     -23.112  25.231 -14.055  0.00  0.00    +0.249 C 
ATOM     22  O3  UNL     1     -23.281  24.854 -12.900  0.00  0.00    -0.270 OA
ATOM     23  C26 UNL     1     -18.702  27.547 -19.443  0.00  0.00    +0.120 C 
ATOM     24 CL1  UNL     1     -15.861  24.597 -11.600  0.00  0.00    -0.081 Cl
ENDROOT
BRANCH   4  25
ATOM     25  C27 UNL     1     -13.130  25.232 -13.074  0.00  0.00    +0.085 A 
ATOM     26  C28 UNL     1     -12.344  26.250 -12.524  0.00  0.00    +0.199 A 
ATOM     27  C29 UNL     1     -11.125  25.984 -11.904  0.00  0.00    +0.042 A 
ATOM     28  C30 UNL     1     -10.666  24.673 -11.824  0.00  0.00    +0.006 A 
ATOM     29  C31 UNL     1     -11.427  23.637 -12.358  0.00  0.00    +0.030 A 
ATOM     30  C32 UNL     1     -12.644  23.922 -12.975  0.00  0.00    +0.145 A 
ATOM     31  F1  UNL     1     -13.368  22.902 -13.462  0.00  0.00    -0.204 F 
ATOM     32  O4  UNL     1     -12.756  27.552 -12.577  0.00  0.00    -0.286 OA
ENDBRANCH   4  25
BRANCH   1  35
ATOM     33  C1  UNL     1     -13.955  29.449 -16.518  0.00  0.00    +0.033 C 
ATOM     34  C2  UNL     1     -13.285  28.315 -17.219  0.00  0.00    -0.003 A 
ATOM     35  C3  UNL     1     -13.930  27.095 -17.471  0.00  0.00    +0.078 A 
ATOM     36  C4  UNL     1     -13.204  26.103 -18.156  0.00  0.00    +0.074 A 
ATOM     37  N1  UNL     1     -11.926  26.284 -18.591  0.00  0.00    -0.247 NA
ATOM     38  C5  UNL     1     -11.354  27.481 -18.339  0.00  0.00    +0.098 A 
ATOM     39  C6  UNL     1     -11.981  28.513 -17.664  0.00  0.00    +0.018 A 
BRANCH  36  40
ATOM     40  C7  UNL     1     -13.790  24.738 -18.365  0.00  0.00    +0.042 C 
ATOM     41  C8  UNL     1     -14.204  24.525 -19.802  0.00  0.00    +0.006 C 
ATOM     42  C9  UNL     1     -12.804  23.674 -17.949  0.00  0.00    +0.006 C 
ENDBRANCH  36  40
ENDBRANCH   1  35
BRANCH  21  43
ATOM     43  C24 UNL     1     -24.232  25.440 -15.003  0.00  0.00    +0.058 C 
ATOM     44  C25 UNL     1     -25.458  25.092 -14.610  0.00  0.00    +0.005 C 
ENDBRANCH  21  43
TORSDOF 4
ENDMDL
