MODEL 1
REMARK VINA RESULT:    -6.753      0.000      0.000
REMARK INTER + INTRA:          -8.007
REMARK INTER:                  -7.543
REMARK INTRA:                  -0.464
REMARK UNBOUND:                -0.464
REMARK  Name = /tmp/tmpmgji_4rp/7YCE_candidate_0044.pdb
REMARK  2 active torsions:
REMARK  status: ('A' for Active; 'I' for Inactive)
REMARK    1  A    between atoms: C12_16  and  C13_18
REMARK    2  A    between atoms: C15_20  and  C19_24
REMARK                            x       y       z     vdW  Elec       q    Type
REMARK                         _______ _______ _______ _____ _____    ______ ____
ROOT
ATOM      1  C1  UNL     1     -21.727  30.138 -15.610  0.00  0.00    +0.024 C 
ATOM      2  C2  UNL     1     -22.214  29.141 -16.643  0.00  0.00    +0.104 C 
ATOM      3  C3  UNL     1     -23.308  29.836 -17.457  0.00  0.00    +0.162 C 
ATOM      4  O1  UNL     1     -23.758  29.024 -18.543  0.00  0.00    -0.350 OA
ATOM      5  C4  UNL     1     -22.647  28.816 -19.418  0.00  0.00    +0.164 C 
ATOM      6  C5  UNL     1     -21.554  28.027 -18.706  0.00  0.00    +0.124 C 
ATOM      7  N1  UNL     1     -21.088  28.739 -17.508  0.00  0.00    -0.290 N 
ATOM      8  C6  UNL     1     -20.254  27.801 -16.826  0.00  0.00    +0.138 A 
ATOM      9  N2  UNL     1     -20.751  27.131 -15.775  0.00  0.00    -0.199 NA
ATOM     10  C7  UNL     1     -19.963  26.250 -15.142  0.00  0.00    +0.223 A 
ATOM     11  N3  UNL     1     -18.704  26.009 -15.519  0.00  0.00    -0.194 NA
ATOM     12  C8  UNL     1     -18.200  26.667 -16.549  0.00  0.00    +0.168 A 
ATOM     13  C9  UNL     1     -18.945  27.595 -17.257  0.00  0.00    +0.068 A 
ATOM     14  C10 UNL     1     -18.345  28.268 -18.331  0.00  0.00    +0.007 A 
ATOM     15  C11 UNL     1     -17.035  27.996 -18.676  0.00  0.00    +0.019 A 
ATOM     16  C12 UNL     1     -16.353  27.049 -17.931  0.00  0.00    +0.083 A 
ATOM     17  N4  UNL     1     -16.935  26.400 -16.890  0.00  0.00    -0.226 NA
ATOM     18  N6  UNL     1     -20.489  25.583 -14.021  0.00  0.00    -0.275 N 
ATOM     19  C21 UNL     1     -21.882  25.270 -14.331  0.00  0.00    +0.126 C 
ATOM     20  C22 UNL     1     -22.486  24.313 -13.316  0.00  0.00    +0.164 C 
ATOM     21  O3  UNL     1     -21.705  23.120 -13.240  0.00  0.00    -0.350 OA
ATOM     22  C23 UNL     1     -20.434  23.481 -12.704  0.00  0.00    +0.162 C 
ATOM     23  C24 UNL     1     -19.665  24.437 -13.617  0.00  0.00    +0.105 C 
ATOM     24  C25 UNL     1     -18.475  24.922 -12.810  0.00  0.00    +0.024 C 
ENDROOT
BRANCH  16  25
ATOM     25  C13 UNL     1     -14.959  26.691 -18.224  0.00  0.00    +0.018 A 
ATOM     26  C14 UNL     1     -13.911  27.584 -17.962  0.00  0.00    +0.006 A 
ATOM     27  C15 UNL     1     -12.584  27.249 -18.239  0.00  0.00    +0.055 A 
ATOM     28  C16 UNL     1     -12.280  26.006 -18.787  0.00  0.00    +0.005 A 
ATOM     29  C17 UNL     1     -13.303  25.104 -19.056  0.00  0.00    +0.000 A 
ATOM     30  C18 UNL     1     -14.625  25.447 -18.776  0.00  0.00    +0.002 A 
BRANCH  27  31
ATOM     31  C19 UNL     1     -11.481  28.193 -17.961  0.00  0.00    +0.265 C 
ATOM     32  O2  UNL     1     -11.714  29.365 -17.685  0.00  0.00    -0.268 OA
ATOM     33  N5  UNL     1     -10.219  27.651 -18.040  0.00  0.00    -0.200 NA
ATOM     34  C20 UNL     1      -9.072  28.478 -17.787  0.00  0.00    +0.139 C 
ENDBRANCH  27  31
ENDBRANCH  16  25
TORSDOF 2
ENDMDL
