MODEL 1
REMARK VINA RESULT:    -6.310      0.000      0.000
REMARK INTER + INTRA:          -9.505
REMARK INTER:                  -7.786
REMARK INTRA:                  -1.720
REMARK UNBOUND:                -1.720
REMARK  Name = /tmp/tmph8ue_8mt/7YCE_candidate_0004.pdb
REMARK  4 active torsions:
REMARK  status: ('A' for Active; 'I' for Inactive)
REMARK    1  A    between atoms: N4_12  and  C19_28
REMARK    2  A    between atoms: C9_15  and  C13_20
REMARK    3  A    between atoms: C23_33  and  C24_34
REMARK    4  A    between atoms: C28_38  and  C29_40
REMARK                            x       y       z     vdW  Elec       q    Type
REMARK                         _______ _______ _______ _____ _____    ______ ____
ROOT
ATOM      1  C1  UNL     1     -20.066  24.772 -15.967  0.00  0.00    +0.023 C 
ATOM      2  C2  UNL     1     -20.125  25.981 -16.862  0.00  0.00    +0.094 C 
ATOM      3  C3  UNL     1     -20.962  27.115 -16.276  0.00  0.00    +0.113 C 
ATOM      4  N1  UNL     1     -21.073  28.185 -17.257  0.00  0.00    -0.273 N 
ATOM      5  C4  UNL     1     -19.804  28.669 -17.782  0.00  0.00    +0.115 C 
ATOM      6  C5  UNL     1     -18.946  27.508 -18.312  0.00  0.00    +0.114 C 
ATOM      7  N2  UNL     1     -18.791  26.460 -17.282  0.00  0.00    -0.291 N 
ATOM      8  C6  UNL     1     -17.790  26.659 -16.331  0.00  0.00    +0.139 A 
ATOM      9  N3  UNL     1     -18.095  26.792 -15.079  0.00  0.00    -0.177 NA
ATOM     10  C7  UNL     1     -17.150  27.001 -14.105  0.00  0.00    +0.356 A 
ATOM     11  O1  UNL     1     -17.511  27.138 -12.938  0.00  0.00    -0.244 OA
ATOM     12  N4  UNL     1     -15.809  27.086 -14.473  0.00  0.00    -0.242 N 
ATOM     13  C8  UNL     1     -15.408  26.909 -15.814  0.00  0.00    +0.154 A 
ATOM     14  N5  UNL     1     -14.090  26.905 -16.145  0.00  0.00    -0.225 NA
ATOM     15  C9  UNL     1     -13.732  26.691 -17.440  0.00  0.00    +0.115 A 
ATOM     16  C10 UNL     1     -14.680  26.472 -18.432  0.00  0.00    +0.158 A 
ATOM     17  C11 UNL     1     -16.022  26.472 -18.092  0.00  0.00    +0.037 A 
ATOM     18  C12 UNL     1     -16.385  26.701 -16.769  0.00  0.00    +0.069 A 
ATOM     19  F1  UNL     1     -14.323  26.244 -19.702  0.00  0.00    -0.203 F 
ATOM     20  C28 UNL     1     -22.252  28.269 -17.969  0.00  0.00    +0.249 C 
ATOM     21  O3  UNL     1     -23.236  27.582 -17.722  0.00  0.00    -0.270 OA
ENDROOT
BRANCH  15  22
ATOM     22  C13 UNL     1     -12.295  26.716 -17.707  0.00  0.00    +0.086 A 
ATOM     23  C14 UNL     1     -11.564  27.911 -17.762  0.00  0.00    +0.199 A 
ATOM     24  C15 UNL     1     -10.197  27.929 -18.029  0.00  0.00    +0.042 A 
ATOM     25  C16 UNL     1      -9.522  26.734 -18.250  0.00  0.00    +0.006 A 
ATOM     26  C17 UNL     1     -10.216  25.529 -18.205  0.00  0.00    +0.030 A 
ATOM     27  C18 UNL     1     -11.584  25.530 -17.936  0.00  0.00    +0.145 A 
ATOM     28  F2  UNL     1     -12.228  24.352 -17.922  0.00  0.00    -0.204 F 
ATOM     29  O2  UNL     1     -12.171  29.114 -17.529  0.00  0.00    -0.286 OA
ENDBRANCH  15  22
BRANCH  12  30
ATOM     30  C19 UNL     1     -14.788  27.252 -13.490  0.00  0.00    +0.079 A 
ATOM     31  C20 UNL     1     -14.287  28.525 -13.172  0.00  0.00    -0.003 A 
ATOM     32  C21 UNL     1     -13.284  28.655 -12.215  0.00  0.00    +0.018 A 
ATOM     33  C22 UNL     1     -12.810  27.511 -11.600  0.00  0.00    +0.098 A 
ATOM     34  N6  UNL     1     -13.264  26.268 -11.868  0.00  0.00    -0.247 NA
ATOM     35  C23 UNL     1     -14.252  26.151 -12.797  0.00  0.00    +0.074 A 
ATOM     36  C27 UNL     1     -14.824  29.779 -13.777  0.00  0.00    +0.033 C 
BRANCH  35  37
ATOM     37  C24 UNL     1     -14.696  24.754 -13.120  0.00  0.00    +0.042 C 
ATOM     38  C25 UNL     1     -13.621  24.021 -13.885  0.00  0.00    +0.006 C 
ATOM     39  C26 UNL     1     -15.064  23.987 -11.874  0.00  0.00    +0.006 C 
ENDBRANCH  35  37
ENDBRANCH  12  30
BRANCH  20  40
ATOM     40  C29 UNL     1     -22.224  29.267 -19.065  0.00  0.00    +0.058 C 
ATOM     41  C30 UNL     1     -23.248  29.286 -19.920  0.00  0.00    +0.005 C 
ENDBRANCH  20  40
TORSDOF 4
ENDMDL
