MODEL 1
REMARK VINA RESULT:    -6.881      0.000      0.000
REMARK INTER + INTRA:          -8.481
REMARK INTER:                  -7.686
REMARK INTRA:                  -0.795
REMARK UNBOUND:                -0.795
REMARK  Name = /tmp/tmpsw4md0ck/7YCE_candidate_0014.pdb
REMARK  2 active torsions:
REMARK  status: ('A' for Active; 'I' for Inactive)
REMARK    1  A    between atoms: C9_11  and  C15_20
REMARK    2  A    between atoms: C22_31  and  C23_33
REMARK                            x       y       z     vdW  Elec       q    Type
REMARK                         _______ _______ _______ _____ _____    ______ ____
ROOT
ATOM      1  C1  UNL     1     -23.389  26.195 -15.745  0.00  0.00    +0.023 C 
ATOM      2  C2  UNL     1     -22.642  26.127 -14.434  0.00  0.00    +0.095 C 
ATOM      3  C3  UNL     1     -21.438  27.056 -14.433  0.00  0.00    +0.112 C 
ATOM      4  N1  UNL     1     -20.163  26.473 -14.832  0.00  0.00    -0.291 N 
ATOM      5  C4  UNL     1     -19.950  25.040 -14.669  0.00  0.00    +0.098 C 
ATOM      6  C5  UNL     1     -19.037  24.755 -13.507  0.00  0.00    +0.069 C 
ATOM      7  C6  UNL     1     -17.607  24.992 -13.942  0.00  0.00    +0.207 C 
ATOM      8  O1  UNL     1     -17.430  26.379 -14.228  0.00  0.00    -0.474 OA
ATOM      9  C7  UNL     1     -17.229  26.512 -15.586  0.00  0.00    +0.153 A 
ATOM     10  C8  UNL     1     -15.908  26.477 -16.065  0.00  0.00    +0.094 A 
ATOM     11  C9  UNL     1     -15.651  26.742 -17.413  0.00  0.00    +0.048 A 
ATOM     12  C10 UNL     1     -16.743  27.071 -18.231  0.00  0.00    +0.159 A 
ATOM     13  C11 UNL     1     -18.064  27.135 -17.781  0.00  0.00    +0.116 A 
ATOM     14  C12 UNL     1     -18.338  26.827 -16.442  0.00  0.00    +0.086 A 
ATOM     15  C13 UNL     1     -19.717  26.891 -16.097  0.00  0.00    +0.138 A 
ATOM     16  N2  UNL     1     -20.663  27.300 -16.960  0.00  0.00    -0.209 NA
ATOM     17  C14 UNL     1     -20.266  27.588 -18.199  0.00  0.00    +0.200 A 
ATOM     18  N3  UNL     1     -19.016  27.493 -18.652  0.00  0.00    -0.221 NA
ATOM     19  F1  UNL     1     -16.494  27.348 -19.525  0.00  0.00    -0.203 F 
ATOM     20 CL1  UNL     1     -14.601  26.115 -14.978  0.00  0.00    -0.079 Cl
ATOM     21  C21 UNL     1     -21.186  24.163 -14.669  0.00  0.00    +0.113 C 
ATOM     22  N4  UNL     1     -22.341  24.762 -14.050  0.00  0.00    -0.274 N 
ATOM     23  C22 UNL     1     -23.269  23.901 -13.501  0.00  0.00    +0.249 C 
ATOM     24  O3  UNL     1     -23.082  22.694 -13.399  0.00  0.00    -0.270 OA
ENDROOT
BRANCH  11  25
ATOM     25  C15 UNL     1     -14.300  26.711 -17.991  0.00  0.00    +0.069 A 
ATOM     26  C16 UNL     1     -13.382  27.748 -17.792  0.00  0.00    +0.198 A 
ATOM     27  C17 UNL     1     -12.103  27.713 -18.342  0.00  0.00    +0.042 A 
ATOM     28  C18 UNL     1     -11.715  26.620 -19.111  0.00  0.00    +0.006 A 
ATOM     29  C19 UNL     1     -12.604  25.571 -19.329  0.00  0.00    +0.030 A 
ATOM     30  C20 UNL     1     -13.879  25.624 -18.770  0.00  0.00    +0.143 A 
ATOM     31  F2  UNL     1     -14.721  24.604 -18.999  0.00  0.00    -0.204 F 
ATOM     32  O2  UNL     1     -13.723  28.842 -17.048  0.00  0.00    -0.286 OA
ENDBRANCH  11  25
BRANCH  23  33
ATOM     33  C23 UNL     1     -24.504  24.564 -13.016  0.00  0.00    +0.058 C 
ATOM     34  C24 UNL     1     -25.675  24.122 -13.477  0.00  0.00    +0.005 C 
ENDBRANCH  23  33
TORSDOF 2
ENDMDL
