MODEL 1
REMARK VINA RESULT:    -6.706      0.000      0.000
REMARK INTER + INTRA:          -9.940
REMARK INTER:                  -8.275
REMARK INTRA:                  -1.665
REMARK UNBOUND:                -1.665
REMARK  Name = /tmp/tmp_zo19rub/7YCE_candidate_0068.pdb
REMARK  4 active torsions:
REMARK  status: ('A' for Active; 'I' for Inactive)
REMARK    1  A    between atoms: C7_9  and  C9_12
REMARK    2  A    between atoms: N3_14  and  C20_27
REMARK    3  A    between atoms: C11_16  and  C12_17
REMARK    4  A    between atoms: C26_34  and  C27_36
REMARK                            x       y       z     vdW  Elec       q    Type
REMARK                         _______ _______ _______ _____ _____    ______ ____
ROOT
ATOM      1  C9  UNL     1     -15.268  27.089 -16.875  0.00  0.00    +0.033 A 
ATOM      2  C10 UNL     1     -16.393  27.533 -17.541  0.00  0.00    +0.057 A 
ATOM      3  N3  UNL     1     -17.445  26.974 -16.879  0.00  0.00    -0.257 N 
ATOM      4  N4  UNL     1     -17.091  26.191 -15.851  0.00  0.00    -0.170 NA
ATOM      5  C11 UNL     1     -15.748  26.249 -15.819  0.00  0.00    +0.102 A 
ATOM      6  C29 UNL     1     -16.563  28.418 -18.709  0.00  0.00    +0.052 C 
ENDROOT
BRANCH   1  15
ATOM      7  C1  UNL     1     -10.873  26.210 -19.204  0.00  0.00    +0.032 C 
ATOM      8  C2  UNL     1     -11.792  27.061 -18.387  0.00  0.00    -0.010 A 
ATOM      9  C3  UNL     1     -11.307  28.311 -17.981  0.00  0.00    +0.018 A 
ATOM     10  C4  UNL     1     -12.164  29.107 -17.222  0.00  0.00    +0.104 A 
ATOM     11  C5  UNL     1     -13.448  28.719 -16.859  0.00  0.00    +0.041 A 
ATOM     12  C6  UNL     1     -13.940  29.816 -16.114  0.00  0.00    +0.124 A 
ATOM     13  N1  UNL     1     -13.055  30.809 -16.004  0.00  0.00    -0.146 NA
ATOM     14  N2  UNL     1     -11.994  30.354 -16.685  0.00  0.00    -0.148 NA
ATOM     15  C7  UNL     1     -13.925  27.458 -17.269  0.00  0.00    +0.016 A 
ATOM     16  C8  UNL     1     -13.081  26.633 -18.040  0.00  0.00    +0.054 A 
ATOM     17 CL1  UNL     1     -13.627  25.075 -18.577  0.00  0.00    -0.083 Cl
ENDBRANCH   1  15
BRANCH   5  18
ATOM     18  C12 UNL     1     -14.996  25.511 -14.804  0.00  0.00    +0.020 A 
ATOM     19  C13 UNL     1     -13.594  25.546 -14.813  0.00  0.00    +0.005 A 
ATOM     20  C14 UNL     1     -12.883  24.839 -13.831  0.00  0.00    +0.038 A 
ATOM     21  C15 UNL     1     -13.581  24.115 -12.870  0.00  0.00    +0.079 A 
ATOM     22  C16 UNL     1     -14.976  24.054 -12.831  0.00  0.00    +0.019 A 
ATOM     23  C17 UNL     1     -15.656  24.770 -13.821  0.00  0.00    +0.003 A 
ATOM     24  N5  UNL     1     -12.616  23.558 -12.083  0.00  0.00    -0.249 N 
ATOM     25  N6  UNL     1     -11.358  23.856 -12.441  0.00  0.00    -0.168 NA
ATOM     26  C18 UNL     1     -11.522  24.638 -13.514  0.00  0.00    +0.122 A 
ATOM     27  C19 UNL     1     -12.837  22.709 -10.933  0.00  0.00    +0.154 C 
ENDBRANCH   5  18
BRANCH   3  28
ATOM     28  C20 UNL     1     -18.849  27.210 -17.258  0.00  0.00    +0.105 C 
ATOM     29  C21 UNL     1     -19.586  25.897 -17.592  0.00  0.00    +0.028 C 
ATOM     30  C22 UNL     1     -20.443  26.121 -16.387  0.00  0.00    +0.040 C 
ATOM     31  C23 UNL     1     -19.752  27.396 -16.021  0.00  0.00    +0.028 C 
ATOM     32  C24 UNL     1     -21.925  26.143 -16.562  0.00  0.00    +0.095 C 
ATOM     33  N7  UNL     1     -21.966  25.096 -15.542  0.00  0.00    -0.276 N 
ATOM     34  C25 UNL     1     -20.514  25.040 -15.359  0.00  0.00    +0.095 C 
ATOM     35  C26 UNL     1     -22.897  24.898 -14.556  0.00  0.00    +0.249 C 
ATOM     36  O1  UNL     1     -22.665  24.322 -13.500  0.00  0.00    -0.270 OA
BRANCH  35  37
ATOM     37  C27 UNL     1     -24.229  25.442 -14.907  0.00  0.00    +0.058 C 
ATOM     38  C28 UNL     1     -25.296  24.922 -14.297  0.00  0.00    +0.005 C 
ENDBRANCH  35  37
ENDBRANCH   3  28
TORSDOF 4
ENDMDL
