MODEL 1
REMARK VINA RESULT:    -7.069      0.000      0.000
REMARK INTER + INTRA:         -12.402
REMARK INTER:                 -11.615
REMARK INTRA:                  -0.787
REMARK UNBOUND:                -0.787
REMARK  Name = /tmp/tmpk9va2325/7YCE_candidate_0049.pdb
REMARK  11 active torsions:
REMARK  status: ('A' for Active; 'I' for Inactive)
REMARK    1  A    between atoms: C4_5  and  C6_7
REMARK    2  A    between atoms: C6_7  and  C7_8
REMARK    3  A    between atoms: C9_14  and  C10_16
REMARK    4  A    between atoms: C10_16  and  C11_17
REMARK    5  A    between atoms: C11_17  and  C12_18
REMARK    6  A    between atoms: C12_18  and  C13_19
REMARK    7  A    between atoms: C13_19  and  C14_20
REMARK    8  A    between atoms: C18_27  and  C19_29
REMARK    9  A    between atoms: C19_29  and  C20_30
REMARK   10  A    between atoms: C22_32  and  O3_36
REMARK   11  A    between atoms: O3_36  and  C26_37
REMARK                            x       y       z     vdW  Elec       q    Type
REMARK                         _______ _______ _______ _____ _____    ______ ____
ROOT
ATOM      1  C14 UNL     1     -10.849  -2.539 -14.501  0.00  0.00    +0.081 A 
ATOM      2  N5  UNL     1     -10.800  -3.824 -14.905  0.00  0.00    -0.151 NA
ATOM      3  N6  UNL     1     -11.694  -4.277 -15.841  0.00  0.00    -0.131 NA
ATOM      4  C15 UNL     1     -12.613  -3.440 -16.359  0.00  0.00    +0.176 A 
ATOM      5  C16 UNL     1     -12.674  -2.116 -15.963  0.00  0.00    +0.039 A 
ATOM      6  C17 UNL     1     -11.771  -1.651 -15.017  0.00  0.00    +0.019 A 
ATOM      7  N7  UNL     1     -13.555  -3.839 -17.312  0.00  0.00    -0.158 NA
ATOM      8  C18 UNL     1     -13.659  -5.103 -17.852  0.00  0.00    +0.251 C 
ATOM      9  O2  UNL     1     -12.978  -6.092 -17.606  0.00  0.00    -0.273 OA
ENDROOT
BRANCH   1  10
ATOM     10  C13 UNL     1      -9.852  -2.079 -13.495  0.00  0.00    +0.048 C 
BRANCH  10  11
ATOM     11  C12 UNL     1     -10.391  -0.880 -12.749  0.00  0.00    +0.007 C 
BRANCH  11  12
ATOM     12  C11 UNL     1      -9.256   0.044 -12.385  0.00  0.00    +0.007 C 
BRANCH  12  13
ATOM     13  C10 UNL     1      -9.771   1.155 -11.502  0.00  0.00    +0.055 C 
BRANCH  13  20
ATOM     14  C7  UNL     1      -6.322   6.303 -11.153  0.00  0.00    +0.253 C 
ATOM     15  O1  UNL     1      -5.516   5.986 -12.021  0.00  0.00    -0.273 OA
ATOM     16  N2  UNL     1      -7.391   5.581 -10.669  0.00  0.00    -0.153 NA
ATOM     17  C8  UNL     1      -7.717   4.353 -11.177  0.00  0.00    +0.208 A 
ATOM     18  N3  UNL     1      -7.150   3.640 -12.121  0.00  0.00    -0.124 NA
ATOM     19  N4  UNL     1      -7.815   2.443 -12.330  0.00  0.00    -0.144 NA
ATOM     20  C9  UNL     1      -8.848   2.312 -11.527  0.00  0.00    +0.112 A 
ATOM     21  S1  UNL     1      -9.093   3.632 -10.460  0.00  0.00    -0.033 S 
BRANCH  14  22
ATOM     22  C6  UNL     1      -6.218   7.620 -10.439  0.00  0.00    +0.133 C 
BRANCH  22  27
ATOM     23  C1  UNL     1      -7.691  10.180 -12.756  0.00  0.00    +0.003 A 
ATOM     24  C2  UNL     1      -6.544  10.859 -13.145  0.00  0.00    +0.021 A 
ATOM     25  C3  UNL     1      -5.336  10.434 -12.619  0.00  0.00    +0.098 A 
ATOM     26  N1  UNL     1      -5.207   9.402 -11.753  0.00  0.00    -0.248 NA
ATOM     27  C4  UNL     1      -6.347   8.765 -11.391  0.00  0.00    +0.068 A 
ATOM     28  C5  UNL     1      -7.603   9.115 -11.868  0.00  0.00    +0.015 A 
ENDBRANCH  22  27
ENDBRANCH  14  22
ENDBRANCH  13  20
ENDBRANCH  12  13
ENDBRANCH  11  12
ENDBRANCH  10  11
ENDBRANCH   1  10
BRANCH   8  29
ATOM     29  C19 UNL     1     -14.792  -5.146 -18.842  0.00  0.00    +0.114 C 
BRANCH  29  30
ATOM     30  C20 UNL     1     -16.068  -4.601 -18.285  0.00  0.00    -0.010 A 
ATOM     31  C21 UNL     1     -16.179  -3.243 -17.987  0.00  0.00    +0.033 A 
ATOM     32  C22 UNL     1     -17.364  -2.729 -17.462  0.00  0.00    +0.147 A 
ATOM     33  C23 UNL     1     -18.439  -3.586 -17.231  0.00  0.00    +0.037 A 
ATOM     34  C24 UNL     1     -18.330  -4.945 -17.521  0.00  0.00    +0.003 A 
ATOM     35  C25 UNL     1     -17.146  -5.453 -18.045  0.00  0.00    -0.004 A 
BRANCH  32  36
ATOM     36  O3  UNL     1     -17.573  -1.416 -17.146  0.00  0.00    -0.404 OA
BRANCH  36  37
ATOM     37  C26 UNL     1     -16.580  -0.807 -16.334  0.00  0.00    +0.575 C 
ATOM     38  F1  UNL     1     -16.134  -1.660 -15.386  0.00  0.00    -0.133 F 
ATOM     39  F2  UNL     1     -15.533  -0.462 -17.115  0.00  0.00    -0.133 F 
ATOM     40  F3  UNL     1     -17.053   0.313 -15.745  0.00  0.00    -0.133 F 
ENDBRANCH  36  37
ENDBRANCH  32  36
ENDBRANCH  29  30
ENDBRANCH   8  29
TORSDOF 11
ENDMDL
