MODEL 1
REMARK VINA RESULT:    -6.338      0.000      0.000
REMARK INTER + INTRA:          -9.034
REMARK INTER:                  -8.560
REMARK INTRA:                  -0.474
REMARK UNBOUND:                -0.474
REMARK  Name = /tmp/tmpvbz9cgtc/7YCE_candidate_0015.pdb
REMARK  6 active torsions:
REMARK  status: ('A' for Active; 'I' for Inactive)
REMARK    1  A    between atoms: C2_2  and  C5_5
REMARK    2  A    between atoms: C7_7  and  N1_13
REMARK    3  A    between atoms: N1_13  and  C11_14
REMARK    4  A    between atoms: C11_14  and  C12_15
REMARK    5  A    between atoms: N3_20  and  C17_23
REMARK    6  A    between atoms: C20_27  and  C21_29
REMARK                            x       y       z     vdW  Elec       q    Type
REMARK                         _______ _______ _______ _____ _____    ______ ____
ROOT
ATOM      1  C12 UNL     1     -11.476  -2.658 -15.719  0.00  0.00    +0.248 C 
ATOM      2  O2  UNL     1     -10.463  -3.298 -16.006  0.00  0.00    -0.273 OA
ATOM      3  N2  UNL     1     -12.725  -2.987 -16.214  0.00  0.00    -0.275 N 
ATOM      4  C13 UNL     1     -13.835  -2.051 -16.145  0.00  0.00    +0.111 C 
ATOM      5  C14 UNL     1     -15.184  -2.738 -16.349  0.00  0.00    +0.094 C 
ATOM      6  N3  UNL     1     -15.220  -3.574 -17.547  0.00  0.00    -0.268 NA
ATOM      7  C15 UNL     1     -14.155  -4.578 -17.454  0.00  0.00    +0.094 C 
ATOM      8  C16 UNL     1     -12.770  -3.958 -17.289  0.00  0.00    +0.111 C 
ENDROOT
BRANCH   6   9
ATOM      9  C17 UNL     1     -16.555  -4.189 -17.603  0.00  0.00    +0.098 C 
ATOM     10  C18 UNL     1     -17.683  -3.187 -17.331  0.00  0.00    +0.111 C 
ATOM     11  N4  UNL     1     -18.037  -3.999 -16.178  0.00  0.00    -0.273 N 
ATOM     12  C19 UNL     1     -16.871  -4.869 -16.269  0.00  0.00    +0.111 C 
ATOM     13  C20 UNL     1     -19.271  -4.360 -15.712  0.00  0.00    +0.249 C 
ATOM     14  O3  UNL     1     -19.478  -5.354 -15.027  0.00  0.00    -0.270 OA
BRANCH  13  15
ATOM     15  C21 UNL     1     -20.338  -3.414 -16.113  0.00  0.00    +0.058 C 
ATOM     16  C22 UNL     1     -21.601  -3.835 -16.038  0.00  0.00    +0.005 C 
ENDBRANCH  13  15
ENDBRANCH   6   9
BRANCH   1  17
ATOM     17  C11 UNL     1     -11.422  -1.497 -14.740  0.00  0.00    +0.197 C 
BRANCH  17  18
ATOM     18  N1  UNL     1     -10.864  -1.931 -13.462  0.00  0.00    -0.225 NA
BRANCH  18  21
ATOM     19  C5  UNL     1      -8.996   0.863 -11.767  0.00  0.00    -0.011 A 
ATOM     20  C6  UNL     1     -10.031   0.056 -12.273  0.00  0.00    +0.016 A 
ATOM     21  C7  UNL     1      -9.814  -1.139 -12.971  0.00  0.00    +0.104 A 
ATOM     22  C8  UNL     1      -8.489  -1.528 -13.165  0.00  0.00    +0.211 A 
ATOM     23  C9  UNL     1      -7.429  -0.772 -12.678  0.00  0.00    +0.054 A 
ATOM     24  C10 UNL     1      -7.684   0.408 -11.983  0.00  0.00    +0.057 A 
ATOM     25 CL1  UNL     1      -6.316   1.275 -11.387  0.00  0.00    -0.082 Cl
ATOM     26  O1  UNL     1      -8.194  -2.678 -13.840  0.00  0.00    -0.285 OA
BRANCH  19  28
ATOM     27  C1  UNL     1      -8.894   3.398 -11.658  0.00  0.00    +0.004 C 
ATOM     28  C2  UNL     1      -9.341   2.127 -11.016  0.00  0.00    +0.020 C 
ATOM     29  C3  UNL     1     -10.622   2.182 -10.222  0.00  0.00    +0.004 C 
ATOM     30  C4  UNL     1      -9.313   2.104  -9.507  0.00  0.00    +0.004 C 
ENDBRANCH  19  28
ENDBRANCH  18  21
ENDBRANCH  17  18
ENDBRANCH   1  17
TORSDOF 6
ENDMDL
