MODEL 1
REMARK VINA RESULT:    -6.387      0.000      0.000
REMARK INTER + INTRA:          -7.357
REMARK INTER:                  -6.760
REMARK INTRA:                  -0.596
REMARK UNBOUND:                -0.596
REMARK  Name = /tmp/tmpf5dmbtu7/7YCE_candidate_0041.pdb
REMARK  1 active torsions:
REMARK  status: ('A' for Active; 'I' for Inactive)
REMARK    1  A    between atoms: C11_14  and  C13_17
REMARK                            x       y       z     vdW  Elec       q    Type
REMARK                         _______ _______ _______ _____ _____    ______ ____
ROOT
ATOM      1  C1  UNL     1     -11.874  25.161 -14.166  0.00  0.00    +0.072 C 
ATOM      2  C2  UNL     1     -12.271  26.523 -14.587  0.00  0.00    +0.124 A 
ATOM      3  N1  UNL     1     -12.073  27.608 -13.868  0.00  0.00    -0.229 NA
ATOM      4  C3  UNL     1     -12.608  28.638 -14.592  0.00  0.00    +0.115 A 
ATOM      5  C4  UNL     1     -13.130  28.171 -15.771  0.00  0.00    +0.086 A 
ATOM      6  N2  UNL     1     -12.957  26.807 -15.758  0.00  0.00    -0.295 N 
ATOM      7  C5  UNL     1     -13.342  25.933 -16.803  0.00  0.00    +0.066 A 
ATOM      8  C6  UNL     1     -14.379  26.241 -17.699  0.00  0.00    +0.034 A 
ATOM      9  C7  UNL     1     -14.630  25.380 -18.774  0.00  0.00    +0.014 A 
ATOM     10  C8  UNL     1     -13.887  24.216 -18.934  0.00  0.00    +0.058 A 
ATOM     11  C9  UNL     1     -12.898  23.881 -18.021  0.00  0.00    +0.013 A 
ATOM     12  C10 UNL     1     -12.629  24.739 -16.959  0.00  0.00    +0.018 A 
ATOM     13 CL1  UNL     1     -14.219  23.176 -20.254  0.00  0.00    -0.082 Cl
ATOM     14  C11 UNL     1     -15.355  27.359 -17.504  0.00  0.00    +0.080 C 
ATOM     15  N3  UNL     1     -15.048  28.560 -17.143  0.00  0.00    -0.264 NA
ATOM     16  C12 UNL     1     -13.653  28.886 -16.938  0.00  0.00    +0.171 C 
ENDROOT
BRANCH  14  17
ATOM     17  C13 UNL     1     -16.802  27.087 -17.726  0.00  0.00    +0.045 A 
ATOM     18  C14 UNL     1     -17.515  26.443 -16.713  0.00  0.00    +0.004 A 
ATOM     19  C15 UNL     1     -18.865  26.148 -16.893  0.00  0.00    +0.000 A 
ATOM     20  C16 UNL     1     -19.501  26.483 -18.085  0.00  0.00    +0.002 A 
ATOM     21  C17 UNL     1     -18.789  27.106 -19.108  0.00  0.00    +0.030 A 
ATOM     22  C18 UNL     1     -17.441  27.401 -18.926  0.00  0.00    +0.142 A 
ATOM     23  F1  UNL     1     -16.767  27.972 -19.935  0.00  0.00    -0.204 F 
ENDBRANCH  14  17
TORSDOF 1
ENDMDL
