MODEL 1
REMARK VINA RESULT:    -4.154      0.000      0.000
REMARK INTER + INTRA:          -6.189
REMARK INTER:                  -5.612
REMARK INTRA:                  -0.577
REMARK UNBOUND:                -0.577
REMARK  Name = /tmp/tmpqk71tv5m/7YCE_candidate_0057.pdb
REMARK  6 active torsions:
REMARK  status: ('A' for Active; 'I' for Inactive)
REMARK    1  A    between atoms: C2_2  and  C3_3
REMARK    2  A    between atoms: N1_5  and  C4_6
REMARK    3  A    between atoms: C4_6  and  C5_7
REMARK    4  A    between atoms: C4_6  and  C8_12
REMARK    5  A    between atoms: C5_7  and  C6_8
REMARK    6  A    between atoms: C6_8  and  C7_9
REMARK                            x       y       z     vdW  Elec       q    Type
REMARK                         _______ _______ _______ _____ _____    ______ ____
ROOT
ATOM      1  C4  UNL     1     -16.917  -2.108 -16.815  0.00  0.00    +0.198 C 
ENDROOT
BRANCH   1   4
ATOM      2  C3  UNL     1     -14.691  -2.670 -15.965  0.00  0.00    +0.259 C 
ATOM      3  O1  UNL     1     -14.139  -2.115 -16.914  0.00  0.00    -0.272 OA
ATOM      4  N1  UNL     1     -16.063  -2.693 -15.808  0.00  0.00    -0.194 NA
BRANCH   2   6
ATOM      5  C1  UNL     1     -14.943  -3.773 -13.749  0.00  0.00    +0.030 C 
ATOM      6  C2  UNL     1     -13.970  -3.369 -14.831  0.00  0.00    +0.169 C 
ATOM      7  N3  UNL     1     -13.023  -2.431 -14.243  0.00  0.00    -0.123 NA
ENDBRANCH   2   6
ENDBRANCH   1   4
BRANCH   1   8
ATOM      8  C8  UNL     1     -17.457  -0.748 -16.435  0.00  0.00    +0.384 C 
ATOM      9  O3  UNL     1     -16.752   0.169 -16.026  0.00  0.00    -0.244 OA
ATOM     10  O4  UNL     1     -18.793  -0.631 -16.616  0.00  0.00    -0.244 OA
ENDBRANCH   1   8
BRANCH   1  11
ATOM     11  C5  UNL     1     -18.095  -3.010 -17.117  0.00  0.00    +0.043 C 
BRANCH  11  12
ATOM     12  C6  UNL     1     -18.296  -4.010 -16.000  0.00  0.00    +0.091 C 
BRANCH  12  13
ATOM     13  C7  UNL     1     -19.752  -4.354 -15.863  0.00  0.00    +0.261 C 
ATOM     14  O2  UNL     1     -20.184  -5.202 -15.089  0.00  0.00    -0.272 OA
ATOM     15  N2  UNL     1     -20.522  -3.570 -16.690  0.00  0.00    -0.088 NA
ENDBRANCH  12  13
ENDBRANCH  11  12
ENDBRANCH   1  11
TORSDOF 6
ENDMDL
