MODEL 1
REMARK VINA RESULT:    -6.362      0.000      0.000
REMARK INTER + INTRA:          -9.361
REMARK INTER:                  -8.593
REMARK INTRA:                  -0.768
REMARK UNBOUND:                -0.768
REMARK  Name = /tmp/tmpyz803155/7YCE_candidate_0061.pdb
REMARK  6 active torsions:
REMARK  status: ('A' for Active; 'I' for Inactive)
REMARK    1  A    between atoms: C8_9  and  O1_12
REMARK    2  A    between atoms: O1_12  and  C10_13
REMARK    3  A    between atoms: C13_16  and  O3_29
REMARK    4  A    between atoms: C14_17  and  O2_23
REMARK    5  A    between atoms: O2_23  and  C19_24
REMARK    6  A    between atoms: C19_24  and  C20_25
REMARK                            x       y       z     vdW  Elec       q    Type
REMARK                         _______ _______ _______ _____ _____    ______ ____
ROOT
ATOM      1  C10 UNL     1     -13.602  -2.742 -16.223  0.00  0.00    +0.148 A 
ATOM      2  C11 UNL     1     -12.327  -3.009 -15.705  0.00  0.00    +0.055 A 
ATOM      3  C12 UNL     1     -11.888  -2.493 -14.476  0.00  0.00    +0.045 A 
ATOM      4  C13 UNL     1     -10.619  -2.780 -13.979  0.00  0.00    +0.173 A 
ATOM      5  C14 UNL     1      -9.772  -3.603 -14.726  0.00  0.00    +0.174 A 
ATOM      6  C15 UNL     1     -10.216  -4.111 -15.949  0.00  0.00    +0.059 A 
ATOM      7  C16 UNL     1     -11.475  -3.833 -16.460  0.00  0.00    +0.087 A 
ATOM      8  N2  UNL     1     -11.841  -4.350 -17.646  0.00  0.00    -0.244 NA
ATOM      9  C17 UNL     1     -13.070  -4.043 -18.121  0.00  0.00    +0.102 A 
ATOM     10  C18 UNL     1     -13.980  -3.243 -17.463  0.00  0.00    +0.058 A 
ENDROOT
BRANCH   4  11
ATOM     11  O3  UNL     1     -10.156  -2.297 -12.785  0.00  0.00    -0.468 OA
ATOM     12  C23 UNL     1     -10.322  -0.887 -12.687  0.00  0.00    +0.253 C 
ENDBRANCH   4  11
BRANCH   1  13
ATOM     13  O1  UNL     1     -14.438  -1.890 -15.532  0.00  0.00    -0.451 OA
BRANCH  13  22
ATOM     14  C1  UNL     1     -21.325  -4.438 -16.187  0.00  0.00    +0.052 C 
ATOM     15  C2  UNL     1     -19.996  -3.807 -16.122  0.00  0.00    +0.059 A 
ATOM     16  C3  UNL     1     -18.812  -4.248 -15.578  0.00  0.00    +0.019 A 
ATOM     17  C4  UNL     1     -17.832  -3.241 -15.789  0.00  0.00    +0.049 A 
ATOM     18  C5  UNL     1     -18.460  -2.198 -16.472  0.00  0.00    +0.083 A 
ATOM     19  N1  UNL     1     -19.766  -2.573 -16.655  0.00  0.00    -0.250 NA
ATOM     20  C6  UNL     1     -17.795  -1.030 -16.859  0.00  0.00    +0.022 A 
ATOM     21  C7  UNL     1     -16.440  -0.934 -16.528  0.00  0.00    +0.041 A 
ATOM     22  C8  UNL     1     -15.782  -1.945 -15.828  0.00  0.00    +0.173 A 
ATOM     23  C9  UNL     1     -16.469  -3.110 -15.472  0.00  0.00    +0.176 A 
ATOM     24  F1  UNL     1     -15.829  -4.094 -14.825  0.00  0.00    -0.201 F 
ENDBRANCH  13  22
ENDBRANCH   1  13
BRANCH   5  25
ATOM     25  O2  UNL     1      -8.529  -3.873 -14.214  0.00  0.00    -0.471 OA
BRANCH  25  26
ATOM     26  C19 UNL     1      -7.509  -3.726 -15.199  0.00  0.00    +0.223 C 
BRANCH  26  27
ATOM     27  C20 UNL     1      -6.468  -2.731 -14.791  0.00  0.00    +0.117 C 
ATOM     28  C21 UNL     1      -6.361  -1.442 -15.567  0.00  0.00    +0.023 C 
ATOM     29  C22 UNL     1      -6.914  -1.430 -14.174  0.00  0.00    +0.023 C 
ATOM     30  N3  UNL     1      -5.225  -3.334 -14.293  0.00  0.00    -0.131 NA
ENDBRANCH  26  27
ENDBRANCH  25  26
ENDBRANCH   5  25
TORSDOF 6
ENDMDL
